date Thu 28 Aug 12:23:25 CEST 2025
master hostname lian.fmc.uam.es
system Linux lian.fmc.uam.es 4.18.0-513.11.1.el8_9.x86_64 #1 SMP Wed Jan 10 22:58:54 UTC 2024 x86_64 x86_64 x86_64 GNU/Linux
user palacios
output data in /home/palacios/MoS2/MoS2.outp
properties in /home/palacios/CRYSTAL23OMP/bin/Linux-ifx_i64_omp/v1.0.1
input data in /home/palacios/MoS2/MoS2.d3
temporary directory /home/palacios/scratch/tmp_p1931403_palacios
wave function data from /home/palacios/MoS2/MoS2.f9
wave function formatted data from /home/palacios/MoS2/MoS2.f98
BASISSET
2
60 50
64 50
END

         
 *******************************************************************************
 *                                                                             *
 *                               CRYSTAL23                                     *
 *                      public : 1.0.1 - October 2022                          *
 *                       HTTP://WWW.CRYSTAL.UNITO.IT                           *
 *                                                                             *
 *                              MAIN AUTHORS                                   *
 *                                                                             *
 *  R. DOVESI(1,11), V.R. SAUNDERS(2), C. ROETTI(1,11), R. ORLANDO(1,11),      *
 *  C.M. ZICOVICH-WILSON(1,3), F. PASCALE(4), B. CIVALLERI(1,11),              *
 *  K. DOLL(5), N.M. HARRISON(6), I.J. BUSH(7), Ph. D'ARCO(8),                 *
 *  M. LLUNELL(9), M. CAUSA'(10), Y. NOEL(8), L. MASCHIO(1,11), A. ERBA(1,11)  *
 *  M. RE'RAT(14), S. CASASSA(1,11), B.G. SEARLE(2), J.K. DESMARAIS(1)         *
 *                                                                             *
 *        CONTRIBUTIONS TO THE CODE HAVE ALSO BEEN GIVEN BY                    *
 *                                                                             *
 *  M. FERRABONE(1,11), M. DE LA PIERRE(1,11), M. FERRERO(1,11),               *
 *  J. BAIMA(1,11), E. ALBANESE(1,11), M.F. PEINTINGER(12), R. BAST(13),       *
 *  B. KIRTMAN(15), V. LACIVITA(1,11), R. DEMICHELIS(1,16)                     *
 *  G. BRANDEBURG(17), S. SALUSTRO(1,11), G. SANSONE(1,11)                     *
 *  M.T. RUGGIERO(18), L.E. DAGA(1), L. DONA'(1), A. COSSARD(1)                *
 *                                                                             *
 * (1) THEORETICAL CHEMISTRY GROUP - UNIVERSITA' DI TORINO - TORINO (ITALY)    *
 * (2) SCIENTIFIC COMPUTING DEPARTMENT - STFC DARESBURY (UK)                   *
 * (3) UNIVERSIDAD AUTONOMA DEL ESTADO DE MORELOS - CUERNAVACA (MEXICO)        *
 * (4) UNIVERSITE' DE LORRAINE - NANCY (FRANCE)                                *
 * (5) UNIVERSITAET STUTTGART- STUTTGART (GERMANY)                             *
 * (6) IMPERIAL COLLEGE - LONDON (UK)                                          *
 * (7) SCIENTIFIC COMPUTING DEPARTMENT - STFC RAL (UK)                         *
 * (8) UPMC - SORBONNE UNIVERSITES - PARIS (FRANCE)                            *
 * (9) UNIVERSIDAD DE BARCELONA - BARCELONA (SPAIN)                            *
 *(10) UNIVERSITA' DI NAPOLI "FEDERICO II" - NAPOLI (ITALY)                    *
 *(11) NIS - NANOSTRUCTURED INTERFACES AND SURFACES - TORINO (ITALY)           *
 *(12) MPI FUER CHEMISCHE ENERGIEKONVERSION - MUELHEIM AN DER RUHR (GERMANY)   *
 *(13) UNIVERSITY OF TROMSO - TROMSO (NORWAY)                                  *
 *(14) UNIVERSITE' DE PAU ET DES PAYS DE L'ADOUR - PAU (FRANCE)                *
 *(15) UNIVERSITY OF CALIFORNIA SANTA BARBARA - SANTA BARBARA (USA)            *
 *(16) CURTIN UNIVERSITY - PERTH (AUSTRALIA)                                   *
 *(17) UNIVERSITY COLLEGE LONDON - LONDON (UK)                                 *
 *(18) UNIVERSITY OF VERMONT - BURLINGTON (USA)                                *
 *                                                                             *
 *******************************************************************************
 EEEEEEEEEE STARTING  DATE 28 08 2025 TIME 12:23:25.6
 INFORMATION **** SET_MPP **** PCRYSTAL CALCULATION

 *******************************************************************************
 MoS2                                                                            
 CRYSTAL - PROPERTIES - TYPE OF CALCULATION :  RESTRICTED CLOSED SHELL
 *******************************************************************************
 KOHN-SHAM HAMILTONIAN

 (EXCHANGE)[CORRELATION] FUNCTIONAL:(HSE06 SR/GGA)[PERDEW-BURKE-ERNZERHOF]

 RANGE-SEPARATED HYBRID FUNCTIONAL 
 OMEGA (SHORT-RANGE)[LONG-RANGE]:(    0.1100)[    0.0000]

 HYBRID EXCHANGE - PERCENTAGE OF FOCK EXCHANGE    25.0000

 DIRECT LATTICE VECTOR COMPONENTS (ANGSTROM)
         2.73664   -1.58000    0.00000
         0.00000    3.16000    0.00000
         0.00000    0.00000  500.00000

 LATTICE PARAMETERS  (ANGSTROM AND DEGREES) - PRIMITIVE CELL
       A          B          C         ALPHA      BETA     GAMMA        VOLUME
    3.16000    3.16000  500.00000     90.0000   90.0000  120.0000       8.64778
 *******************************************************************************
 N. OF ATOMS PER CELL         3 COULOMB OVERLAP TOL          (T1) 10**   -6
 NUMBER OF SHELLS            24 COULOMB PENETRATION TOL      (T2) 10**   -6
 NUMBER OF AO                62 EXCHANGE OVERLAP TOL         (T3) 10**   -6
 N. OF ELECTRONS PER CELL    46 EXCHANGE PSEUDO OVP (F(G))   (T4) 10**   -6
 CORE ELECTRONS PER CELL     20 EXCHANGE PSEUDO OVP (P(G))   (T5) 10**  -12
 N. OF SYMMETRY OPERATORS    12 POLE ORDER IN MONO ZONE                   4
 CORE  PSEUDO POTENTIAL         TOL. ON PSEUDO              (TP) 10**- 6
 *******************************************************************************
   ATOM N.AT.  SHELL    X(A)      Y(A)      Z(A)      EXAD       N.ELECT.
 *******************************************************************************
    1  242 MO    8     0.000     0.000     0.000   1.055E+00      11.879
    2   16 S     8    -1.824    -0.000     1.585   1.500E-01      17.060
    3   16 S     8    -1.824    -0.000    -1.585   1.500E-01      17.060
 *******************************************************************************
 DE(K)                   0.000E+00  ENERGY LEVEL SHIFTING        0.00000
 TOTAL ENERGY -8.6396667462575E+02  CONVERGENCE ON ENER       -2.524E-11
 KIN. ENERGY   8.1734951339200E+02  VIR. COEFF.           9.99290692E-01
 N. OF SCF CYCLES               12  FERMI ENERGY              -0.225E+00
 WEIGHT OF F(I) IN F(I+1)      70
 SHRINK. FACT.(MONKH.)    12 12  1  SHRINKING FACTOR(GILAT NET)       24
 NUMBER OF K POINTS IN THE IBZ  19  CELL VOLUME (A.U.)         30.881795
 *******************************************************************************

 GCALCO - MAX INDICES DIRECT LATTICE VECTOR    83    83     0
 NO.OF VECTORS CREATED 6999 STARS  503 RMAX   262.54387 BOHR
 TTTTTTTTTTTTTTTTTTTTTTTTTTTTTT gordsh1     TELAPSE        0.02 TCPU        0.02

 MATRIX SIZE: P(G)   63056, F(G)   14736, P(G) IRR    5012, F(G) IRR    2661
 MAX G-VECTOR INDEX FOR 1- AND 2-ELECTRON INTEGRALS  37


 CAPPA:IS1 12;IS2 12;IS3  1; K PTS MONK NET  19; SYMMOPS:K SPACE  24;G SPACE  12


 *******************************************************************************
 MoS2                                                                            
 CRYSTAL - PROPERTIES - TYPE OF CALCULATION :  RESTRICTED CLOSED SHELL
 *******************************************************************************
 KOHN-SHAM HAMILTONIAN

 (EXCHANGE)[CORRELATION] FUNCTIONAL:(HSE06 SR/GGA)[PERDEW-BURKE-ERNZERHOF]

 RANGE-SEPARATED HYBRID FUNCTIONAL 
 OMEGA (SHORT-RANGE)[LONG-RANGE]:(    0.1100)[    0.0000]

 HYBRID EXCHANGE - PERCENTAGE OF FOCK EXCHANGE    25.0000

 DIRECT LATTICE VECTOR COMPONENTS (ANGSTROM)
         2.73664   -1.58000    0.00000
         0.00000    3.16000    0.00000
         0.00000    0.00000  500.00000

 LATTICE PARAMETERS  (ANGSTROM AND DEGREES) - PRIMITIVE CELL
       A          B          C         ALPHA      BETA     GAMMA        VOLUME
    3.16000    3.16000  500.00000     90.0000   90.0000  120.0000       8.64778
 *******************************************************************************
 N. OF ATOMS PER CELL         3 COULOMB OVERLAP TOL          (T1) 10**   -6
 NUMBER OF SHELLS            24 COULOMB PENETRATION TOL      (T2) 10**   -6
 NUMBER OF AO                62 EXCHANGE OVERLAP TOL         (T3) 10**   -6
 N. OF ELECTRONS PER CELL    46 EXCHANGE PSEUDO OVP (F(G))   (T4) 10**   -6
 CORE ELECTRONS PER CELL     20 EXCHANGE PSEUDO OVP (P(G))   (T5) 10**  -12
 N. OF SYMMETRY OPERATORS    12 POLE ORDER IN MONO ZONE                   4
 CORE  PSEUDO POTENTIAL         TOL. ON PSEUDO              (TP) 10**- 6
 *******************************************************************************
   ATOM N.AT.  SHELL    X(A)      Y(A)      Z(A)      EXAD       N.ELECT.
 *******************************************************************************
    1  242 MO    8     0.000     0.000     0.000   1.055E+00      11.879
    2   16 S     8    -1.824    -0.000     1.585   1.500E-01      17.060
    3   16 S     8    -1.824    -0.000    -1.585   1.500E-01      17.060
 *******************************************************************************
 DE(K)                   0.000E+00  ENERGY LEVEL SHIFTING        0.00000
 TOTAL ENERGY -8.6396667462575E+02  CONVERGENCE ON ENER       -2.524E-11
 KIN. ENERGY   8.1734951339200E+02  VIR. COEFF.           9.99290692E-01
 N. OF SCF CYCLES               12  FERMI ENERGY              -0.225E+00
 WEIGHT OF F(I) IN F(I+1)      70
 SHRINK. FACT.(MONKH.)    12 12  1  SHRINKING FACTOR(GILAT NET)       24
 NUMBER OF K POINTS IN THE IBZ  19  CELL VOLUME (A.U.)         30.881795
 *******************************************************************************

 *******************************************************************************
 LOCAL ATOMIC FUNCTIONS BASIS SET
 *******************************************************************************
   ATOM   X(AU)   Y(AU)   Z(AU)  N. TYPE  EXPONENT  S COEF   P COEF   D/F/G COEF
 *******************************************************************************
   1 MO   0.000   0.000   0.000
                                  1 S  
                                         7.203E+00-6.577E+00 0.000E+00 0.000E+00
                                         5.052E+00 9.072E+00 0.000E+00 0.000E+00
                                         2.914E+00 1.038E+00 0.000E+00 0.000E+00
                                  2 S  
                                         8.739E-01 1.567E+00 0.000E+00 0.000E+00
                                  3 S  
                                         4.261E-01 9.141E-01 0.000E+00 0.000E+00
                           4-     6 P  
                                         3.152E+00 0.000E+00-1.057E+01 0.000E+00
                                         2.453E+00 0.000E+00 8.218E+00 0.000E+00
                                         8.503E-01 0.000E+00 1.853E+00 0.000E+00
                                         3.692E-01 0.000E+00 2.699E-01 0.000E+00
                           7-     9 P  
                                         4.855E-01 0.000E+00 1.405E+00 0.000E+00
                          10-    14 D  
                                         5.004E+00 0.000E+00 0.000E+00-1.579E+00
                                         1.774E+00 0.000E+00 0.000E+00 2.496E+00
                                         7.695E-01 0.000E+00 0.000E+00 1.208E+00
                                         3.153E-01 0.000E+00 0.000E+00 2.384E-01
                          15-    19 D  
                                         3.475E-01 0.000E+00 0.000E+00 6.297E-01
                          20-    26 F  
                                         1.055E+00 0.000E+00 0.000E+00 4.043E+00
   2 S   -3.448  -0.000   2.995
                                 27 S  
                                         9.185E+03-8.900E+00 0.000E+00 0.000E+00
                                         1.382E+03-1.609E+01 0.000E+00 0.000E+00
                                         3.139E+02-2.388E+01 0.000E+00 0.000E+00
                                         8.805E+01-2.370E+01 0.000E+00 0.000E+00
                                         2.704E+01-8.940E+00 0.000E+00 0.000E+00
                                 28 S  
                                         4.565E+01-2.798E+00 0.000E+00 0.000E+00
                                         4.966E+00 3.212E+00 0.000E+00 0.000E+00
                                         2.012E+00 1.497E+00 0.000E+00 0.000E+00
                                 29 S  
                                         3.847E-01 8.466E-01 0.000E+00 0.000E+00
                                 30 S  
                                         1.486E-01 4.148E-01 0.000E+00 0.000E+00
                          31-    33 P  
                                         2.620E+02 0.000E+00-3.355E+01 0.000E+00
                                         6.131E+01 0.000E+00-3.919E+01 0.000E+00
                                         1.910E+01 0.000E+00-3.404E+01 0.000E+00
                                         6.657E+00 0.000E+00-1.788E+01 0.000E+00
                                         2.396E+00 0.000E+00-4.026E+00 0.000E+00
                          34-    36 P  
                                         6.742E-01 0.000E+00 2.118E+00 0.000E+00
                          37-    39 P  
                                         1.697E-01 0.000E+00 3.777E-01 0.000E+00
                          40-    44 D  
                                         1.500E-01 0.000E+00 0.000E+00 1.447E-01
   3 S   -3.448  -0.000  -2.995

 OVERLAP MATRIX - CELL N.   1(  0  0  0)

              1           2           3           4           5           6           7           8           9          10

   1     1.0000E+00
   2     7.1270E-01  1.0000E+00
   3     4.8669E-01  9.0960E-01  1.0000E+00
   4     0.0000E+00  0.0000E+00  0.0000E+00  1.0000E+00
   5     0.0000E+00  0.0000E+00  0.0000E+00  0.0000E+00  1.0000E+00
   6     0.0000E+00  0.0000E+00  0.0000E+00  0.0000E+00  0.0000E+00  1.0000E+00
   7     0.0000E+00  0.0000E+00  0.0000E+00  9.4848E-01  0.0000E+00  0.0000E+00  1.0000E+00
   8     0.0000E+00  0.0000E+00  0.0000E+00  0.0000E+00  9.4848E-01  0.0000E+00  0.0000E+00  1.0000E+00
   9     0.0000E+00  0.0000E+00  0.0000E+00  0.0000E+00  0.0000E+00  9.4848E-01  0.0000E+00  0.0000E+00  1.0000E+00
  10     0.0000E+00  0.0000E+00  0.0000E+00  0.0000E+00  0.0000E+00  0.0000E+00  0.0000E+00  0.0000E+00  0.0000E+00  1.0000E+00
  11     0.0000E+00  0.0000E+00  0.0000E+00  0.0000E+00  0.0000E+00  0.0000E+00  0.0000E+00  0.0000E+00  0.0000E+00  0.0000E+00
  12     0.0000E+00  0.0000E+00  0.0000E+00  0.0000E+00  0.0000E+00  0.0000E+00  0.0000E+00  0.0000E+00  0.0000E+00  0.0000E+00
  13     0.0000E+00  0.0000E+00  0.0000E+00  0.0000E+00  0.0000E+00  0.0000E+00  0.0000E+00  0.0000E+00  0.0000E+00  1.1304E-17
  14     0.0000E+00  0.0000E+00  0.0000E+00  0.0000E+00  0.0000E+00  0.0000E+00  0.0000E+00  0.0000E+00  0.0000E+00  0.0000E+00
  15     0.0000E+00  0.0000E+00  0.0000E+00  0.0000E+00  0.0000E+00  0.0000E+00  0.0000E+00  0.0000E+00  0.0000E+00  8.8948E-01
  16     0.0000E+00  0.0000E+00  0.0000E+00  0.0000E+00  0.0000E+00  0.0000E+00  0.0000E+00  0.0000E+00  0.0000E+00  0.0000E+00
  17     0.0000E+00  0.0000E+00  0.0000E+00  0.0000E+00  0.0000E+00  0.0000E+00  0.0000E+00  0.0000E+00  0.0000E+00  0.0000E+00
  18     0.0000E+00  0.0000E+00  0.0000E+00  0.0000E+00  0.0000E+00  0.0000E+00  0.0000E+00  0.0000E+00  0.0000E+00 -4.5522E-18
  19     0.0000E+00  0.0000E+00  0.0000E+00  0.0000E+00  0.0000E+00  0.0000E+00  0.0000E+00  0.0000E+00  0.0000E+00  0.0000E+00
  20     0.0000E+00  0.0000E+00  0.0000E+00  0.0000E+00  0.0000E+00 -1.1662E-16  0.0000E+00  0.0000E+00 -2.8924E-18  0.0000E+00
  21     0.0000E+00  0.0000E+00  0.0000E+00 -1.8632E-17  0.0000E+00  0.0000E+00 -2.8401E-17  0.0000E+00  0.0000E+00  0.0000E+00
  22     0.0000E+00  0.0000E+00  0.0000E+00  0.0000E+00 -1.8632E-17  0.0000E+00  0.0000E+00 -2.8401E-17  0.0000E+00  0.0000E+00
  23     0.0000E+00  0.0000E+00  0.0000E+00  0.0000E+00  0.0000E+00  1.6335E-17  0.0000E+00  0.0000E+00 -3.6088E-18  0.0000E+00
  24     0.0000E+00  0.0000E+00  0.0000E+00  0.0000E+00  0.0000E+00  0.0000E+00  0.0000E+00  0.0000E+00  0.0000E+00  0.0000E+00
  25     0.0000E+00  0.0000E+00  0.0000E+00 -7.1750E-17  0.0000E+00  0.0000E+00 -4.7409E-17  0.0000E+00  0.0000E+00  0.0000E+00
  26     0.0000E+00  0.0000E+00  0.0000E+00  0.0000E+00  6.2623E-17  0.0000E+00  0.0000E+00  5.6768E-17  0.0000E+00  0.0000E+00
  27     0.0000E+00  0.0000E+00 -1.2566E-05  4.0504E-05  2.5963E-21 -3.5189E-05  1.9570E-05  1.2544E-21 -1.7002E-05 -9.4146E-05
  28     0.0000E+00  1.4262E-06  2.8146E-04 -6.1609E-04 -3.9491E-20  5.3524E-04 -5.0073E-04 -3.2096E-20  4.3501E-04  1.0519E-03
  29     3.2182E-04  3.3667E-03  1.4722E-02 -1.6228E-02 -1.0402E-18  1.4099E-02 -2.3913E-02 -1.5328E-18  2.0775E-02  9.3165E-03
  30     1.2501E-02  4.1873E-02  8.2361E-02 -5.9861E-02 -3.8370E-18  5.2005E-02 -8.1834E-02 -5.2455E-18  7.1095E-02  1.4676E-02
  31     0.0000E+00 -1.5160E-06 -2.4557E-04  4.3895E-04  3.2272E-20 -4.3741E-04  4.3262E-04  3.0887E-20 -4.1863E-04 -1.2323E-03
  32     0.0000E+00 -9.7176E-23 -1.5741E-20  3.2272E-20 -6.4527E-05 -2.8037E-20  3.0887E-20 -4.9250E-05 -2.6834E-20 -7.8988E-20
  33     0.0000E+00  1.3171E-06  2.1334E-04 -4.3741E-04 -2.8037E-20  3.1548E-04 -4.1863E-04 -2.6834E-20  3.1444E-04 -1.0594E-04
  34     2.0919E-05  1.1262E-03  9.0986E-03 -9.8555E-03 -7.5527E-19  1.0237E-02 -1.5322E-02 -1.1541E-18  1.5643E-02  1.6337E-02
  35     1.3409E-21  7.2188E-20  5.8321E-19 -7.5527E-19  1.9274E-03  6.5615E-19 -1.1541E-18  2.6835E-03  1.0027E-18  1.0472E-18
  36    -1.8173E-05 -9.7841E-04 -7.9046E-03  1.0237E-02  6.5615E-19 -6.9658E-03  1.5643E-02  1.0027E-18 -1.0906E-02  3.8667E-03
  37     2.4791E-02  7.7807E-02  1.3856E-01 -7.7930E-02 -7.4200E-18  1.0057E-01 -1.0378E-01 -9.9950E-18  1.3547E-01  6.9887E-02
  38     1.5891E-18  4.9874E-18  8.8814E-18 -7.4200E-18  3.7828E-02  6.4462E-18 -9.9950E-18  5.2154E-02  8.6834E-18  4.4797E-18
  39    -2.1537E-02 -6.7596E-02 -1.2037E-01  1.0057E-01  6.4462E-18 -4.9541E-02  1.3547E-01  8.6834E-18 -6.5536E-02  4.5716E-02
  40     1.1847E-02  3.1462E-02  4.6648E-02 -9.2053E-02 -5.9005E-18 -5.9831E-02 -1.2151E-01 -7.7888E-18 -8.1386E-02 -1.2818E-01
  41    -6.9977E-02 -1.8584E-01 -2.7553E-01  1.4618E-01  1.4543E-17 -1.0421E-01  1.8611E-01  1.8848E-17 -1.3122E-01  2.4538E-02
  42    -4.4855E-18 -1.1912E-17 -1.7661E-17  1.4543E-17 -8.0716E-02 -6.6795E-18  1.8848E-17 -1.0794E-01 -8.4107E-18  1.5728E-18
  43     4.0274E-02  1.0695E-01  1.5858E-01 -3.7674E-02 -1.4325E-17  1.1345E-01 -4.4990E-02 -1.8811E-17  1.4702E-01  1.1015E-01
  44     5.1630E-18  1.3711E-17  2.0329E-17 -1.0785E-17  9.2908E-02  1.4543E-17 -1.3731E-17  1.2424E-01  1.8848E-17  1.4122E-17
  45     0.0000E+00  0.0000E+00 -1.2566E-05  4.0504E-05 -2.5963E-21  3.5189E-05  1.9570E-05 -1.2544E-21  1.7002E-05 -9.4146E-05
  46     0.0000E+00  1.4262E-06  2.8146E-04 -6.1609E-04  3.9491E-20 -5.3524E-04 -5.0073E-04  3.2096E-20 -4.3501E-04  1.0519E-03
  47     3.2182E-04  3.3667E-03  1.4722E-02 -1.6228E-02  1.0402E-18 -1.4099E-02 -2.3913E-02  1.5328E-18 -2.0775E-02  9.3165E-03
  48     1.2501E-02  4.1873E-02  8.2361E-02 -5.9861E-02  3.8370E-18 -5.2005E-02 -8.1834E-02  5.2455E-18 -7.1095E-02  1.4676E-02
  49     0.0000E+00 -1.5160E-06 -2.4557E-04  4.3895E-04 -3.2272E-20  4.3741E-04  4.3262E-04 -3.0887E-20  4.1863E-04 -1.2323E-03
  50     0.0000E+00  9.7176E-23  1.5741E-20 -3.2272E-20 -6.4527E-05 -2.8037E-20 -3.0887E-20 -4.9250E-05 -2.6834E-20  7.8988E-20
  51     0.0000E+00 -1.3171E-06 -2.1334E-04  4.3741E-04 -2.8037E-20  3.1548E-04  4.1863E-04 -2.6834E-20  3.1444E-04  1.0594E-04
  52     2.0919E-05  1.1262E-03  9.0986E-03 -9.8555E-03  7.5527E-19 -1.0237E-02 -1.5322E-02  1.1541E-18 -1.5643E-02  1.6337E-02
  53    -1.3409E-21 -7.2188E-20 -5.8321E-19  7.5527E-19  1.9274E-03  6.5615E-19  1.1541E-18  2.6835E-03  1.0027E-18 -1.0472E-18
  54     1.8173E-05  9.7841E-04  7.9046E-03 -1.0237E-02  6.5615E-19 -6.9658E-03 -1.5643E-02  1.0027E-18 -1.0906E-02 -3.8667E-03
  55     2.4791E-02  7.7807E-02  1.3856E-01 -7.7930E-02  7.4200E-18 -1.0057E-01 -1.0378E-01  9.9950E-18 -1.3547E-01  6.9887E-02
  56    -1.5891E-18 -4.9874E-18 -8.8814E-18  7.4200E-18  3.7828E-02  6.4462E-18  9.9950E-18  5.2154E-02  8.6834E-18 -4.4797E-18
  57     2.1537E-02  6.7596E-02  1.2037E-01 -1.0057E-01  6.4462E-18 -4.9541E-02 -1.3547E-01  8.6834E-18 -6.5536E-02 -4.5716E-02
  58     1.1847E-02  3.1462E-02  4.6648E-02 -9.2053E-02  5.9005E-18  5.9831E-02 -1.2151E-01  7.7888E-18  8.1386E-02 -1.2818E-01
  59     6.9977E-02  1.8584E-01  2.7553E-01 -1.4618E-01  1.4543E-17 -1.0421E-01 -1.8611E-01  1.8848E-17 -1.3122E-01 -2.4538E-02
  60    -4.4855E-18 -1.1912E-17 -1.7661E-17  1.4543E-17  8.0716E-02  6.6795E-18  1.8848E-17  1.0794E-01  8.4107E-18  1.5728E-18
  61     4.0274E-02  1.0695E-01  1.5858E-01 -3.7674E-02  1.4325E-17 -1.1345E-01 -4.4990E-02  1.8811E-17 -1.4702E-01  1.1015E-01
  62    -5.1630E-18 -1.3711E-17 -2.0329E-17  1.0785E-17  9.2908E-02  1.4543E-17  1.3731E-17  1.2424E-01  1.8848E-17 -1.4122E-17

             11          12          13          14          15          16          17          18          19          20

  11     1.0000E+00
  12     0.0000E+00  1.0000E+00
  13     0.0000E+00  0.0000E+00  1.0000E+00
  14     0.0000E+00  0.0000E+00  0.0000E+00  1.0000E+00
  15     0.0000E+00  0.0000E+00 -4.5522E-18  0.0000E+00  1.0000E+00
  16     8.8948E-01  0.0000E+00  0.0000E+00  0.0000E+00  0.0000E+00  1.0000E+00
  17     0.0000E+00  8.8948E-01  0.0000E+00  0.0000E+00  0.0000E+00  0.0000E+00  1.0000E+00
  18     0.0000E+00  0.0000E+00  8.8948E-01  0.0000E+00 -1.9339E-18  0.0000E+00  0.0000E+00  1.0000E+00
  19     0.0000E+00  0.0000E+00  0.0000E+00  8.8948E-01  0.0000E+00  0.0000E+00  0.0000E+00  0.0000E+00  1.0000E+00
  20     0.0000E+00  0.0000E+00  0.0000E+00  0.0000E+00  0.0000E+00  0.0000E+00  0.0000E+00  0.0000E+00  0.0000E+00  1.0000E+00
  21     0.0000E+00  0.0000E+00  0.0000E+00  0.0000E+00  0.0000E+00  0.0000E+00  0.0000E+00  0.0000E+00  0.0000E+00  0.0000E+00
  22     0.0000E+00  0.0000E+00  0.0000E+00  0.0000E+00  0.0000E+00  0.0000E+00  0.0000E+00  0.0000E+00  0.0000E+00  0.0000E+00
  23     0.0000E+00  0.0000E+00  0.0000E+00  0.0000E+00  0.0000E+00  0.0000E+00  0.0000E+00  0.0000E+00  0.0000E+00  2.9054E-17
  24     0.0000E+00  0.0000E+00  0.0000E+00  0.0000E+00  0.0000E+00  0.0000E+00  0.0000E+00  0.0000E+00  0.0000E+00  0.0000E+00
  25     0.0000E+00  0.0000E+00  0.0000E+00  0.0000E+00  0.0000E+00  0.0000E+00  0.0000E+00  0.0000E+00  0.0000E+00  0.0000E+00
  26     0.0000E+00  0.0000E+00  0.0000E+00  0.0000E+00  0.0000E+00  0.0000E+00  0.0000E+00  0.0000E+00  0.0000E+00  0.0000E+00
  27     5.5609E-04  3.5644E-20 -3.2004E-04 -4.1029E-20 -1.2815E-04  7.5696E-04  4.8520E-20 -4.3565E-04 -5.5850E-20  0.0000E+00
  28    -6.2134E-03 -3.9827E-19  3.5760E-03  4.5844E-19  1.5729E-03 -9.2903E-03 -5.9550E-19  5.3468E-03  6.8545E-19  0.0000E+00
  29    -5.5029E-02 -3.5273E-18  3.1671E-02  4.0601E-18  1.4856E-02 -8.7747E-02 -5.6245E-18  5.0501E-02  6.4741E-18 -2.6343E-03
  30    -8.6686E-02 -5.5565E-18  4.9891E-02  6.3958E-18  2.1802E-02 -1.2878E-01 -8.2545E-18  7.4115E-02  9.5014E-18 -3.9374E-03
  31     3.9331E-03  2.9565E-19 -1.8727E-03 -2.9019E-19 -1.9196E-03  6.3939E-03  4.7419E-19 -3.1021E-03 -4.7175E-19  0.0000E+00
  32     2.9565E-19 -6.7926E-04 -2.2027E-19  7.8186E-04 -1.2304E-19  4.7419E-19 -1.0039E-03 -3.4698E-19  1.1555E-03  0.0000E+00
  33    -3.2252E-03 -2.0673E-19  2.3062E-03  2.9565E-19 -7.1123E-05 -5.2714E-03 -3.3789E-19  3.6989E-03  4.7419E-19  0.0000E+00
  34    -4.5142E-02 -3.5619E-18  1.9980E-02  3.3307E-18  2.7058E-02 -7.5875E-02 -5.9560E-18  3.3859E-02  5.5982E-18 -1.2932E-03
  35    -3.5619E-18  1.0427E-02  2.8193E-18 -1.2002E-02  1.7344E-18 -5.9560E-18  1.7044E-02  4.6854E-18 -1.9619E-02 -8.2895E-20
  36     3.6275E-02  2.3252E-18 -2.7785E-02 -3.5619E-18  6.0144E-03  6.1106E-02  3.9168E-18 -4.6460E-02 -5.9560E-18  2.1747E-03
  37    -1.1014E-01 -1.0999E-17  2.8027E-02  8.1266E-18  1.0312E-01 -1.5704E-01 -1.5949E-17  3.7559E-02  1.1587E-17  1.6627E-03
  38    -1.0999E-17  6.1448E-02  1.0864E-17 -7.0730E-02  6.6099E-18 -1.5949E-17  9.1782E-02  1.5951E-17 -1.0565E-01  1.0657E-19
  39     7.8344E-02  5.0217E-18 -8.5796E-02 -1.0999E-17  6.9383E-02  1.1052E-01  7.0844E-18 -1.2441E-01 -1.5949E-17  1.2711E-02
  40     2.4538E-02  1.5728E-18  1.1015E-01  1.4122E-17 -1.8343E-01  3.8023E-02  2.4372E-18  1.5776E-01  2.0224E-17 -1.2052E-02
  41     8.4443E-02  8.7631E-18 -3.6602E-02 -1.2683E-17  3.8023E-02  1.0925E-01  1.1700E-17 -4.4226E-02 -1.7221E-17  1.3062E-02
  42     8.7631E-18 -5.2270E-02 -1.8329E-17  1.2467E-01  2.4372E-18  1.1700E-17 -7.3282E-02 -2.5937E-17  1.8021E-01  8.3725E-19
  43    -3.6602E-02 -1.8329E-17  5.3538E-03  1.1899E-17  1.5776E-01 -4.4226E-02 -2.5937E-17  5.0157E-03  1.6559E-17  1.7125E-02
  44    -1.2683E-17  1.2467E-01  1.1899E-17 -8.7463E-02  2.0224E-17 -1.7221E-17  1.8021E-01  1.6559E-17 -1.2415E-01  2.1953E-18
  45    -5.5609E-04  3.5644E-20 -3.2004E-04  4.1029E-20 -1.2815E-04 -7.5696E-04  4.8520E-20 -4.3565E-04  5.5850E-20  0.0000E+00
  46     6.2134E-03 -3.9827E-19  3.5760E-03 -4.5844E-19  1.5729E-03  9.2903E-03 -5.9550E-19  5.3468E-03 -6.8545E-19  0.0000E+00
  47     5.5029E-02 -3.5273E-18  3.1671E-02 -4.0601E-18  1.4856E-02  8.7747E-02 -5.6245E-18  5.0501E-02 -6.4741E-18  2.6343E-03
  48     8.6686E-02 -5.5565E-18  4.9891E-02 -6.3958E-18  2.1802E-02  1.2878E-01 -8.2545E-18  7.4115E-02 -9.5014E-18  3.9374E-03
  49    -3.9331E-03  2.9565E-19 -1.8727E-03  2.9019E-19 -1.9196E-03 -6.3939E-03  4.7419E-19 -3.1021E-03  4.7175E-19  0.0000E+00
  50     2.9565E-19  6.7926E-04  2.2027E-19  7.8186E-04  1.2304E-19  4.7419E-19  1.0039E-03  3.4698E-19  1.1555E-03  0.0000E+00
  51    -3.2252E-03  2.0673E-19 -2.3062E-03  2.9565E-19  7.1123E-05 -5.2714E-03  3.3789E-19 -3.6989E-03  4.7419E-19  0.0000E+00
  52     4.5142E-02 -3.5619E-18  1.9980E-02 -3.3307E-18  2.7058E-02  7.5875E-02 -5.9560E-18  3.3859E-02 -5.5982E-18  1.2932E-03
  53    -3.5619E-18 -1.0427E-02 -2.8193E-18 -1.2002E-02 -1.7344E-18 -5.9560E-18 -1.7044E-02 -4.6854E-18 -1.9619E-02 -8.2895E-20
  54     3.6275E-02 -2.3252E-18  2.7785E-02 -3.5619E-18 -6.0144E-03  6.1106E-02 -3.9168E-18  4.6460E-02 -5.9560E-18  2.1747E-03
  55     1.1014E-01 -1.0999E-17  2.8027E-02 -8.1266E-18  1.0312E-01  1.5704E-01 -1.5949E-17  3.7559E-02 -1.1587E-17 -1.6627E-03
  56    -1.0999E-17 -6.1448E-02 -1.0864E-17 -7.0730E-02 -6.6099E-18 -1.5949E-17 -9.1782E-02 -1.5951E-17 -1.0565E-01  1.0657E-19
  57     7.8344E-02 -5.0217E-18  8.5796E-02 -1.0999E-17 -6.9383E-02  1.1052E-01 -7.0844E-18  1.2441E-01 -1.5949E-17  1.2711E-02
  58    -2.4538E-02  1.5728E-18  1.1015E-01 -1.4122E-17 -1.8343E-01 -3.8023E-02  2.4372E-18  1.5776E-01 -2.0224E-17  1.2052E-02
  59     8.4443E-02 -8.7631E-18  3.6602E-02 -1.2683E-17 -3.8023E-02  1.0925E-01 -1.1700E-17  4.4226E-02 -1.7221E-17  1.3062E-02
  60    -8.7631E-18 -5.2270E-02 -1.8329E-17 -1.2467E-01  2.4372E-18 -1.1700E-17 -7.3282E-02 -2.5937E-17 -1.8021E-01 -8.3725E-19
  61     3.6602E-02 -1.8329E-17  5.3538E-03 -1.1899E-17  1.5776E-01  4.4226E-02 -2.5937E-17  5.0157E-03 -1.6559E-17 -1.7125E-02
  62    -1.2683E-17 -1.2467E-01 -1.1899E-17 -8.7463E-02 -2.0224E-17 -1.7221E-17 -1.8021E-01 -1.6559E-17 -1.2415E-01  2.1953E-18

             21          22          23          24          25          26          27          28          29          30

  21     1.0000E+00
  22     0.0000E+00  1.0000E+00
  23     0.0000E+00  0.0000E+00  1.0000E+00
  24     0.0000E+00  0.0000E+00  0.0000E+00  1.0000E+00
  25    -7.0128E-17  0.0000E+00  0.0000E+00  0.0000E+00  1.0000E+00
  26     0.0000E+00  6.9966E-17  0.0000E+00  0.0000E+00  0.0000E+00  1.0000E+00
  27     0.0000E+00  0.0000E+00  0.0000E+00  0.0000E+00  0.0000E+00  0.0000E+00  1.0000E+00
  28     0.0000E+00  0.0000E+00  0.0000E+00  0.0000E+00  0.0000E+00  0.0000E+00 -2.8036E-01  1.0000E+00
  29    -5.0306E-03 -3.2246E-19  6.8451E-03  8.7753E-19 -3.2167E-03 -6.1855E-19 -7.5998E-02  5.2122E-01  1.0000E+00
  30    -7.5191E-03 -4.8197E-19  1.0231E-02  1.3116E-18 -4.8079E-03 -9.2454E-19 -3.7596E-02  2.8894E-01  8.4902E-01  1.0000E+00
  31     0.0000E+00  0.0000E+00  0.0000E+00  0.0000E+00  0.0000E+00  0.0000E+00  0.0000E+00  0.0000E+00  0.0000E+00  0.0000E+00
  32     0.0000E+00  0.0000E+00  0.0000E+00  0.0000E+00  0.0000E+00  0.0000E+00  0.0000E+00  0.0000E+00  0.0000E+00  0.0000E+00
  33     0.0000E+00  0.0000E+00  0.0000E+00  0.0000E+00  0.0000E+00  0.0000E+00  0.0000E+00  0.0000E+00  0.0000E+00  0.0000E+00
  34    -4.1931E-03 -2.9628E-19  4.5432E-03  6.5728E-19 -1.8605E-03 -4.1054E-19  0.0000E+00  0.0000E+00  0.0000E+00  0.0000E+00
  35    -2.9628E-19  4.2914E-04  4.4093E-19 -1.1679E-03 -2.7756E-19  8.2320E-04  0.0000E+00  0.0000E+00  0.0000E+00  0.0000E+00
  36     2.1691E-03  1.3904E-19 -4.2894E-03 -5.4989E-19  2.3315E-03  4.4834E-19  0.0000E+00  0.0000E+00  0.0000E+00  0.0000E+00
  37    -2.0034E-02 -1.6546E-18  1.1608E-02  2.4962E-18 -1.7593E-03 -1.0489E-18  0.0000E+00  0.0000E+00  0.0000E+00  0.0000E+00
  38    -1.6546E-18  5.7791E-03  2.7602E-18 -1.5727E-02 -2.2445E-18  1.1086E-02  0.0000E+00  0.0000E+00  0.0000E+00  0.0000E+00
  39    -2.4411E-03 -1.5647E-19 -1.4696E-02 -1.8840E-18  1.1159E-02  2.1459E-18  0.0000E+00  0.0000E+00  0.0000E+00  0.0000E+00
  40     2.5073E-02  1.6072E-18  8.2918E-03  1.0630E-18 -1.8593E-02 -3.5753E-18  0.0000E+00  0.0000E+00  0.0000E+00  0.0000E+00
  41     4.8365E-03  1.1118E-19 -1.0133E-02 -2.4567E-18  9.0077E-04  1.5907E-18  0.0000E+00  0.0000E+00  0.0000E+00  0.0000E+00
  42     1.1118E-19  3.1021E-03 -2.9647E-18  1.8060E-02  4.3102E-18 -2.2114E-02  0.0000E+00  0.0000E+00  0.0000E+00  0.0000E+00
  43    -1.6380E-02 -3.2908E-18  3.6414E-03  3.6136E-18 -4.0967E-03 -1.9607E-18  0.0000E+00  0.0000E+00  0.0000E+00  0.0000E+00
  44    -3.2204E-18  1.7480E-02  3.6136E-18 -2.4546E-02 -2.2845E-18  9.1491E-03  0.0000E+00  0.0000E+00  0.0000E+00  0.0000E+00
  45     0.0000E+00  0.0000E+00  0.0000E+00  0.0000E+00  0.0000E+00  0.0000E+00  0.0000E+00  0.0000E+00  0.0000E+00 -1.8598E-04
  46     0.0000E+00  0.0000E+00  0.0000E+00  0.0000E+00  0.0000E+00  0.0000E+00  0.0000E+00  0.0000E+00  3.5484E-06  1.8804E-03
  47    -5.0306E-03  3.2246E-19 -6.8451E-03  8.7753E-19 -3.2167E-03  6.1855E-19  0.0000E+00  3.5484E-06  1.0060E-03  1.8145E-02
  48    -7.5191E-03  4.8197E-19 -1.0231E-02  1.3116E-18 -4.8079E-03  9.2454E-19 -1.8598E-04  1.8804E-03  1.8145E-02  6.9568E-02
  49     0.0000E+00  0.0000E+00  0.0000E+00  0.0000E+00  0.0000E+00  0.0000E+00  0.0000E+00  0.0000E+00 -1.2221E-22 -3.2924E-20
  50     0.0000E+00  0.0000E+00  0.0000E+00  0.0000E+00  0.0000E+00  0.0000E+00  0.0000E+00  0.0000E+00  4.5609E-22  1.2287E-19
  51     0.0000E+00  0.0000E+00  0.0000E+00  0.0000E+00  0.0000E+00  0.0000E+00  0.0000E+00  0.0000E+00 -4.5038E-06 -1.2133E-03
  52    -4.1931E-03  2.9628E-19 -4.5432E-03  6.5728E-19 -1.8605E-03  4.1054E-19  0.0000E+00  0.0000E+00  1.3941E-20  4.1209E-19
  53     2.9628E-19  4.2914E-04  4.4093E-19  1.1679E-03  2.7756E-19  8.2320E-04  0.0000E+00  0.0000E+00 -5.2027E-20 -1.5379E-18
  54    -2.1691E-03  1.3904E-19 -4.2894E-03  5.4989E-19 -2.3315E-03  4.4834E-19  0.0000E+00  0.0000E+00  5.1376E-04  1.5187E-02
  55    -2.0034E-02  1.6546E-18 -1.1608E-02  2.4962E-18 -1.7593E-03  1.0489E-18 -1.2885E-20  1.3147E-19  1.2014E-18  3.6298E-18
  56     1.6546E-18  5.7791E-03  2.7602E-18  1.5727E-02  2.2445E-18  1.1086E-02  4.8087E-20 -4.9067E-19 -4.4838E-18 -1.3547E-17
  57     2.4411E-03 -1.5647E-19 -1.4696E-02  1.8840E-18 -1.1159E-02  2.1459E-18 -4.7485E-04  4.8453E-03  4.4277E-02  1.3377E-01
  58     2.5073E-02 -1.6072E-18 -8.2918E-03  1.0630E-18 -1.8593E-02  3.5753E-18 -2.1935E-03  1.9985E-02  1.1401E-01  2.1136E-01
  59    -4.8365E-03  1.1118E-19 -1.0133E-02  2.4567E-18 -9.0077E-04  1.5907E-18 -1.0309E-19  9.3924E-19  5.3584E-18  9.9336E-18
  60     1.1118E-19 -3.1021E-03  2.9647E-18  1.8060E-02  4.3102E-18  2.2114E-02  3.8474E-19 -3.5053E-18 -1.9998E-17 -3.7073E-17
  61    -1.6380E-02  3.2908E-18 -3.6414E-03  3.6136E-18 -4.0967E-03  1.9607E-18  1.8082E-35 -1.6474E-34 -9.3986E-34 -1.7424E-33
  62     3.2204E-18  1.7480E-02  3.6136E-18  2.4546E-02  2.2845E-18  9.1491E-03  1.0440E-35 -9.5115E-35 -5.4263E-34 -1.0060E-33

             31          32          33          34          35          36          37          38          39          40

  31     1.0000E+00
  32     0.0000E+00  1.0000E+00
  33     0.0000E+00  0.0000E+00  1.0000E+00
  34    -3.8630E-01  0.0000E+00  0.0000E+00  1.0000E+00
  35     0.0000E+00 -3.8630E-01  0.0000E+00  0.0000E+00  1.0000E+00
  36     0.0000E+00  0.0000E+00 -3.8630E-01  0.0000E+00  0.0000E+00  1.0000E+00
  37    -9.7931E-02  0.0000E+00  0.0000E+00  5.7544E-01  0.0000E+00  0.0000E+00  1.0000E+00
  38     0.0000E+00 -9.7931E-02  0.0000E+00  0.0000E+00  5.7544E-01  0.0000E+00  0.0000E+00  1.0000E+00
  39     0.0000E+00  0.0000E+00 -9.7931E-02  0.0000E+00  0.0000E+00  5.7544E-01  0.0000E+00  0.0000E+00  1.0000E+00
  40     0.0000E+00  0.0000E+00  0.0000E+00  0.0000E+00  0.0000E+00  0.0000E+00  0.0000E+00  0.0000E+00  0.0000E+00  1.0000E+00
  41     0.0000E+00  0.0000E+00  0.0000E+00  0.0000E+00  0.0000E+00  0.0000E+00  0.0000E+00  0.0000E+00  0.0000E+00  0.0000E+00
  42     0.0000E+00  0.0000E+00  0.0000E+00  0.0000E+00  0.0000E+00  0.0000E+00  0.0000E+00  0.0000E+00  0.0000E+00  0.0000E+00
  43     0.0000E+00  0.0000E+00  0.0000E+00  0.0000E+00  0.0000E+00  0.0000E+00  0.0000E+00  0.0000E+00  0.0000E+00 -1.0683E-17
  44     0.0000E+00  0.0000E+00  0.0000E+00  0.0000E+00  0.0000E+00  0.0000E+00  0.0000E+00  0.0000E+00  0.0000E+00  0.0000E+00
  45     0.0000E+00  0.0000E+00  0.0000E+00  0.0000E+00  0.0000E+00  0.0000E+00 -3.5202E-20  3.5202E-20  4.7485E-04 -2.1935E-03
  46     0.0000E+00  0.0000E+00  0.0000E+00  0.0000E+00  0.0000E+00  0.0000E+00  3.5920E-19 -3.5920E-19 -4.8453E-03  1.9985E-02
  47    -3.3388E-22  3.3388E-22  4.5038E-06  3.8086E-20 -3.8086E-20 -5.1376E-04  3.2824E-18 -3.2824E-18 -4.4277E-02  1.1401E-01
  48    -8.9949E-20  8.9949E-20  1.2133E-03  1.1259E-18 -1.1259E-18 -1.5187E-02  9.9168E-18 -9.9168E-18 -1.3377E-01  2.1136E-01
  49     0.0000E+00  0.0000E+00  0.0000E+00  0.0000E+00  0.0000E+00  0.0000E+00 -3.0797E-04 -1.9481E-35 -2.6278E-19  1.0767E-18
  50     0.0000E+00  0.0000E+00  0.0000E+00  0.0000E+00  0.0000E+00  0.0000E+00 -1.9481E-35 -3.0797E-04  2.6278E-19 -1.0767E-18
  51     0.0000E+00  0.0000E+00  0.0000E+00  0.0000E+00  0.0000E+00  0.0000E+00 -2.6278E-19  2.6278E-19  3.2368E-03 -1.0649E-02
  52     0.0000E+00  0.0000E+00  0.0000E+00  5.5757E-06  8.1949E-22 -3.6604E-21  4.4332E-03  2.3711E-34  3.1984E-18 -1.0199E-17
  53     0.0000E+00  0.0000E+00  0.0000E+00  8.1949E-22  5.5757E-06  1.3661E-20  2.3711E-34  4.4332E-03 -3.1984E-18  1.0199E-17
  54     0.0000E+00  0.0000E+00  0.0000E+00 -3.6604E-21  1.3661E-20 -1.2932E-04  3.1984E-18 -3.1984E-18 -3.8711E-02  9.5491E-02
  55    -3.0797E-04 -5.0273E-20  9.6185E-20  4.4332E-03  7.4462E-19 -1.1707E-18  4.7571E-02  8.9556E-18 -7.8624E-18 -4.0452E-17
  56    -5.0273E-20 -3.0797E-04 -3.5897E-19  7.4462E-19  4.4332E-03  4.3691E-18  8.9556E-18  4.7571E-02  2.9343E-17  4.0452E-17
  57     9.6185E-20 -3.5897E-19  3.2368E-03 -1.1707E-18  4.3691E-18 -3.8711E-02 -7.8624E-18  2.9343E-17 -2.4219E-01  3.0188E-01
  58     3.9410E-19 -1.4708E-18  1.0649E-02 -3.7332E-18  1.3932E-17 -9.5491E-02 -1.4806E-17  5.5258E-17 -3.0188E-01  2.3597E-01
  59    -2.2374E-03 -4.1909E-19  5.6119E-19  2.4300E-02  3.3587E-18 -5.1473E-18  1.4075E-01  2.5301E-17 -1.8007E-17  2.5053E-17
  60    -4.1909E-19 -2.2374E-03 -2.0944E-18  3.3587E-18  2.4300E-02  1.9210E-17  2.5301E-17  1.4075E-01  6.7204E-17 -9.3500E-17
  61    -6.0710E-20 -2.2657E-19  1.5908E-20  6.5938E-19  2.4608E-18  3.7134E-19  3.8191E-18  1.4253E-17  1.5498E-18 -3.7999E-19
  62     2.2657E-19 -6.0710E-20 -2.7554E-20 -2.4608E-18  6.5938E-19 -6.4317E-19 -1.4253E-17  3.8191E-18 -2.6843E-18  6.5817E-19

             41          42          43          44          45          46          47          48          49          50

  41     1.0000E+00
  42     0.0000E+00  1.0000E+00
  43     0.0000E+00  0.0000E+00  1.0000E+00
  44     0.0000E+00  0.0000E+00  0.0000E+00  1.0000E+00
  45     2.8165E-19 -2.8165E-19  4.6116E-52  2.0880E-35  1.0000E+00
  46    -2.5661E-18  2.5661E-18 -1.0556E-52 -1.9023E-34 -2.8036E-01  1.0000E+00
  47    -1.4639E-17  1.4639E-17 -2.3566E-50 -1.0853E-33 -7.5998E-02  5.2122E-01  1.0000E+00
  48    -2.7139E-17  2.7139E-17 -6.5266E-50 -2.0119E-33 -3.7596E-02  2.8894E-01  8.4902E-01  1.0000E+00
  49     2.2374E-03  1.2596E-34 -1.6586E-19  1.6586E-19  0.0000E+00  0.0000E+00  0.0000E+00  0.0000E+00  1.0000E+00
  50     1.2596E-34  2.2374E-03 -1.6586E-19 -1.6586E-19  0.0000E+00  0.0000E+00  0.0000E+00  0.0000E+00  1.5166E-16  1.0000E+00
  51     1.5332E-18 -1.5332E-18  3.1817E-20  1.2596E-34  0.0000E+00  0.0000E+00  0.0000E+00  0.0000E+00  0.0000E+00  0.0000E+00
  52    -2.4300E-02 -1.1761E-33  1.8014E-18 -1.8014E-18  0.0000E+00  0.0000E+00  0.0000E+00  0.0000E+00 -3.8630E-01 -5.6369E-17
  53    -1.1761E-33 -2.4300E-02  1.8014E-18  1.8014E-18  0.0000E+00  0.0000E+00  0.0000E+00  0.0000E+00 -5.6369E-17 -3.8630E-01
  54    -1.4063E-17  1.4063E-17  7.4267E-19 -1.1761E-33  0.0000E+00  0.0000E+00  0.0000E+00  0.0000E+00  0.0000E+00  0.0000E+00
  55    -1.4075E-01 -4.4206E-33  1.0434E-17 -1.0434E-17  0.0000E+00  0.0000E+00  0.0000E+00  0.0000E+00 -9.7931E-02 -1.6955E-17
  56    -4.4206E-33 -1.4075E-01  1.0434E-17  1.0434E-17  0.0000E+00  0.0000E+00  0.0000E+00  0.0000E+00 -1.6955E-17 -9.7931E-02
  57    -4.9196E-17  4.9196E-17  3.0996E-18 -4.4206E-33  0.0000E+00  0.0000E+00  0.0000E+00  0.0000E+00  0.0000E+00  0.0000E+00
  58     2.5053E-17 -9.3500E-17 -3.7999E-19  6.5817E-19  0.0000E+00  0.0000E+00  0.0000E+00  0.0000E+00  0.0000E+00  0.0000E+00
  59    -2.9709E-01 -3.6229E-17 -9.9009E-18  3.6950E-17  0.0000E+00  0.0000E+00  0.0000E+00  0.0000E+00  0.0000E+00  0.0000E+00
  60    -3.6229E-17 -2.9709E-01 -3.6950E-17 -9.9009E-18  0.0000E+00  0.0000E+00  0.0000E+00  0.0000E+00  0.0000E+00  0.0000E+00
  61    -9.9009E-18 -3.6950E-17  6.7786E-02  9.8332E-18  0.0000E+00  0.0000E+00  0.0000E+00  0.0000E+00  0.0000E+00  0.0000E+00
  62     3.6950E-17 -9.9009E-18  9.8332E-18  6.7786E-02  0.0000E+00  0.0000E+00  0.0000E+00  0.0000E+00  0.0000E+00  0.0000E+00

             51          52          53          54          55          56          57          58          59          60

  51     1.0000E+00
  52     0.0000E+00  1.0000E+00
  53     0.0000E+00  1.4077E-16  1.0000E+00
  54    -3.8630E-01  0.0000E+00  0.0000E+00  1.0000E+00
  55     0.0000E+00  5.7544E-01  8.5331E-17  0.0000E+00  1.0000E+00
  56     0.0000E+00  8.5331E-17  5.7544E-01  0.0000E+00  1.8141E-16  1.0000E+00
  57    -9.7931E-02  0.0000E+00  0.0000E+00  5.7544E-01  0.0000E+00  0.0000E+00  1.0000E+00
  58     0.0000E+00  0.0000E+00  0.0000E+00  0.0000E+00  0.0000E+00  0.0000E+00  0.0000E+00  1.0000E+00
  59     0.0000E+00  0.0000E+00  0.0000E+00  0.0000E+00  0.0000E+00  0.0000E+00  0.0000E+00  0.0000E+00  1.0000E+00
  60     0.0000E+00  0.0000E+00  0.0000E+00  0.0000E+00  0.0000E+00  0.0000E+00  0.0000E+00  0.0000E+00  1.4077E-16  1.0000E+00
  61     0.0000E+00  0.0000E+00  0.0000E+00  0.0000E+00  0.0000E+00  0.0000E+00  0.0000E+00  5.3416E-18  0.0000E+00  0.0000E+00
  62     0.0000E+00  0.0000E+00  0.0000E+00  0.0000E+00  0.0000E+00  0.0000E+00  0.0000E+00 -9.2519E-18  0.0000E+00  0.0000E+00

             61          62
  61     1.0000E+00
  62     1.3679E-16  1.0000E+00

 OVERLAP MATRIX - CELL N.   2( -1 -1  0)

              1           2           3           4           5           6           7           8           9          10

   1     0.0000E+00
   2     0.0000E+00  0.0000E+00
   3     0.0000E+00  3.3352E-05  5.0216E-04
   4    -4.4142E-06 -1.0055E-04 -8.6280E-04 -1.2919E-03
   5    -2.5485E-06 -5.8050E-05 -4.9814E-04 -8.2202E-04 -3.4275E-04
   6     0.0000E+00  0.0000E+00  0.0000E+00  0.0000E+00  0.0000E+00  1.3185E-04
   7     0.0000E+00 -6.3771E-05 -1.0275E-03 -1.6799E-03 -1.0618E-03  0.0000E+00 -2.0857E-03
   8     0.0000E+00 -3.6818E-05 -5.9322E-04 -1.0618E-03 -4.5379E-04  0.0000E+00 -1.3046E-03 -5.7920E-04
   9     0.0000E+00  0.0000E+00  0.0000E+00  0.0000E+00  0.0000E+00  1.5925E-04  0.0000E+00  0.0000E+00  1.7403E-04
  10    -6.3841E-05 -6.7549E-04 -3.0604E-03 -3.8926E-03 -2.2474E-03  0.0000E+00 -5.7055E-03 -3.2941E-03  0.0000E+00  7.5787E-03
  11     0.0000E+00  0.0000E+00  0.0000E+00  0.0000E+00  0.0000E+00 -1.1889E-03  0.0000E+00  0.0000E+00 -1.6732E-03  0.0000E+00
  12     0.0000E+00  0.0000E+00  0.0000E+00  0.0000E+00  0.0000E+00 -6.8643E-04  0.0000E+00  0.0000E+00 -9.6603E-04  0.0000E+00
  13     5.5288E-05  5.8499E-04  2.6504E-03  2.7766E-03  2.9759E-03  0.0000E+00  4.1045E-03  4.3018E-03  0.0000E+00 -5.8368E-03
  14     9.5761E-05  1.0132E-03  4.5907E-03  6.1821E-03  2.7766E-03  0.0000E+00  9.0412E-03  4.1045E-03  0.0000E+00 -1.0110E-02
  15    -6.2369E-05 -8.8552E-04 -4.6771E-03 -6.0380E-03 -3.4861E-03  0.0000E+00 -9.0005E-03 -5.1964E-03  0.0000E+00  1.2126E-02
  16     0.0000E+00  0.0000E+00  0.0000E+00  0.0000E+00  0.0000E+00 -1.7825E-03  0.0000E+00  0.0000E+00 -2.5053E-03  0.0000E+00
  17     0.0000E+00  0.0000E+00  0.0000E+00  0.0000E+00  0.0000E+00 -1.0291E-03  0.0000E+00  0.0000E+00 -1.4464E-03  0.0000E+00
  18     5.4014E-05  7.6688E-04  4.0505E-03  4.3378E-03  4.5627E-03  0.0000E+00  6.5420E-03  6.6699E-03  0.0000E+00 -9.3715E-03
  19     9.3554E-05  1.3283E-03  7.0156E-03  9.5716E-03  4.3378E-03  0.0000E+00  1.4224E-02  6.5420E-03  0.0000E+00 -1.6232E-02
  20     0.0000E+00  0.0000E+00  0.0000E+00  0.0000E+00  0.0000E+00 -4.4640E-05  0.0000E+00  0.0000E+00 -3.4104E-05  0.0000E+00
  21     0.0000E+00  0.0000E+00  1.0322E-04  2.2270E-04  1.3910E-04  0.0000E+00  2.1284E-04  1.3092E-04  0.0000E+00 -1.0575E-03
  22     0.0000E+00  0.0000E+00  5.9594E-05  1.3910E-04  6.2084E-05  0.0000E+00  1.3092E-04  6.1664E-05  0.0000E+00 -6.1053E-04
  23     0.0000E+00  0.0000E+00  0.0000E+00  0.0000E+00  0.0000E+00  2.8815E-05  0.0000E+00  0.0000E+00  2.2014E-05  0.0000E+00
  24     0.0000E+00  0.0000E+00  0.0000E+00  0.0000E+00  0.0000E+00  4.9909E-05  0.0000E+00  0.0000E+00  3.8129E-05  0.0000E+00
  25     0.0000E+00  0.0000E+00  3.1792E-20  3.5291E-05 -6.1125E-05  0.0000E+00  2.6962E-05 -4.6699E-05  0.0000E+00 -5.3404E-19
  26     0.0000E+00  0.0000E+00 -1.5387E-04 -3.3877E-04 -1.9559E-04  0.0000E+00 -3.2247E-04 -1.8618E-04  0.0000E+00  1.4055E-03
  27     0.0000E+00  0.0000E+00 -1.2566E-05 -2.0252E-05 -3.5078E-05 -3.5189E-05 -9.7851E-06 -1.6948E-05 -1.7002E-05 -9.4146E-05
  28     0.0000E+00  1.4262E-06  2.8146E-04  3.0805E-04  5.3355E-04  5.3524E-04  2.5036E-04  4.3364E-04  4.3501E-04  1.0519E-03
  29     3.2182E-04  3.3667E-03  1.4722E-02  8.1141E-03  1.4054E-02  1.4099E-02  1.1957E-02  2.0709E-02  2.0775E-02  9.3165E-03
  30     1.2501E-02  4.1873E-02  8.2361E-02  2.9931E-02  5.1841E-02  5.2005E-02  4.0917E-02  7.0871E-02  7.1095E-02  1.4676E-02
  31     0.0000E+00  7.5802E-07  1.2278E-04  6.1343E-05  2.1801E-04  2.1870E-04  7.1216E-05  2.0865E-04  2.0931E-04  6.1614E-04
  32     0.0000E+00  1.3129E-06  2.1267E-04  2.1801E-04  3.1308E-04  3.7880E-04  2.0865E-04  3.1215E-04  3.6254E-04  1.0672E-03
  33     0.0000E+00  1.3171E-06  2.1334E-04  2.1870E-04  3.7880E-04  3.1548E-04  2.0931E-04  3.6254E-04  3.1444E-04 -1.0594E-04
  34    -1.0459E-05 -5.6310E-04 -4.5493E-03 -1.0183E-03 -5.1021E-03 -5.1183E-03 -1.8180E-03 -7.7967E-03 -7.8214E-03 -8.1687E-03
  35    -1.8116E-05 -9.7532E-04 -7.8796E-03 -5.1021E-03 -6.9098E-03 -8.8651E-03 -7.7967E-03 -1.0821E-02 -1.3547E-02 -1.4149E-02
  36    -1.8173E-05 -9.7841E-04 -7.9046E-03 -5.1183E-03 -8.8651E-03 -6.9658E-03 -7.8214E-03 -1.3547E-02 -1.0906E-02  3.8667E-03
  37    -1.2395E-02 -3.8904E-02 -6.9279E-02  8.8886E-03 -5.0125E-02 -5.0284E-02  1.3171E-02 -6.7520E-02 -6.7734E-02 -3.4943E-02
  38    -2.1469E-02 -6.7383E-02 -1.1999E-01 -5.0125E-02 -4.8991E-02 -8.7094E-02 -6.7520E-02 -6.4795E-02 -1.1732E-01 -6.0524E-02
  39    -2.1537E-02 -6.7596E-02 -1.2037E-01 -5.0284E-02 -8.7094E-02 -4.9541E-02 -6.7734E-02 -1.1732E-01 -6.5536E-02  4.5716E-02
  40     1.1847E-02  3.1462E-02  4.6648E-02  4.6027E-02  7.9721E-02 -5.9831E-02  6.0756E-02  1.0523E-01 -8.1386E-02 -1.2818E-01
  41     3.4989E-02  9.2918E-02  1.3777E-01 -2.3993E-02  9.8247E-02  5.2104E-02 -3.4425E-02  1.2733E-01  6.5608E-02 -1.2269E-02
  42     6.0602E-02  1.6094E-01  2.3862E-01  9.8247E-02  8.9453E-02  9.0246E-02  1.2733E-01  1.1260E-01  1.1364E-01 -2.1250E-02
  43    -2.0137E-02 -5.3477E-02 -7.9288E-02 -7.9100E-02  2.3917E-02 -5.6723E-02 -1.0443E-01  3.4317E-02 -7.3511E-02 -5.5077E-02
  44     3.4878E-02  9.2625E-02  1.3733E-01 -2.3917E-02  5.1483E-02  9.8247E-02 -3.4317E-02  6.4803E-02  1.2733E-01  9.5397E-02
  45     0.0000E+00  0.0000E+00 -1.2566E-05 -2.0252E-05 -3.5078E-05  3.5189E-05 -9.7851E-06 -1.6948E-05  1.7002E-05 -9.4146E-05
  46     0.0000E+00  1.4262E-06  2.8146E-04  3.0805E-04  5.3355E-04 -5.3524E-04  2.5036E-04  4.3364E-04 -4.3501E-04  1.0519E-03
  47     3.2182E-04  3.3667E-03  1.4722E-02  8.1141E-03  1.4054E-02 -1.4099E-02  1.1957E-02  2.0709E-02 -2.0775E-02  9.3165E-03
  48     1.2501E-02  4.1873E-02  8.2361E-02  2.9931E-02  5.1841E-02 -5.2005E-02  4.0917E-02  7.0871E-02 -7.1095E-02  1.4676E-02
  49     0.0000E+00  7.5802E-07  1.2278E-04  6.1343E-05  2.1801E-04 -2.1870E-04  7.1216E-05  2.0865E-04 -2.0931E-04  6.1614E-04
  50     0.0000E+00  1.3129E-06  2.1267E-04  2.1801E-04  3.1308E-04 -3.7880E-04  2.0865E-04  3.1215E-04 -3.6254E-04  1.0672E-03
  51     0.0000E+00 -1.3171E-06 -2.1334E-04 -2.1870E-04 -3.7880E-04  3.1548E-04 -2.0931E-04 -3.6254E-04  3.1444E-04  1.0594E-04
  52    -1.0459E-05 -5.6310E-04 -4.5493E-03 -1.0183E-03 -5.1021E-03  5.1183E-03 -1.8180E-03 -7.7967E-03  7.8214E-03 -8.1687E-03
  53    -1.8116E-05 -9.7532E-04 -7.8796E-03 -5.1021E-03 -6.9098E-03  8.8651E-03 -7.7967E-03 -1.0821E-02  1.3547E-02 -1.4149E-02
  54     1.8173E-05  9.7841E-04  7.9046E-03  5.1183E-03  8.8651E-03 -6.9658E-03  7.8214E-03  1.3547E-02 -1.0906E-02 -3.8667E-03
  55    -1.2395E-02 -3.8904E-02 -6.9279E-02  8.8886E-03 -5.0125E-02  5.0284E-02  1.3171E-02 -6.7520E-02  6.7734E-02 -3.4943E-02
  56    -2.1469E-02 -6.7383E-02 -1.1999E-01 -5.0125E-02 -4.8991E-02  8.7094E-02 -6.7520E-02 -6.4795E-02  1.1732E-01 -6.0524E-02
  57     2.1537E-02  6.7596E-02  1.2037E-01  5.0284E-02  8.7094E-02 -4.9541E-02  6.7734E-02  1.1732E-01 -6.5536E-02 -4.5716E-02
  58     1.1847E-02  3.1462E-02  4.6648E-02  4.6027E-02  7.9721E-02  5.9831E-02  6.0756E-02  1.0523E-01  8.1386E-02 -1.2818E-01
  59    -3.4989E-02 -9.2918E-02 -1.3777E-01  2.3993E-02 -9.8247E-02  5.2104E-02  3.4425E-02 -1.2733E-01  6.5608E-02  1.2269E-02
  60    -6.0602E-02 -1.6094E-01 -2.3862E-01 -9.8247E-02 -8.9453E-02  9.0246E-02 -1.2733E-01 -1.1260E-01  1.1364E-01  2.1250E-02
  61    -2.0137E-02 -5.3477E-02 -7.9288E-02 -7.9100E-02  2.3917E-02  5.6723E-02 -1.0443E-01  3.4317E-02  7.3511E-02 -5.5077E-02
  62     3.4878E-02  9.2625E-02  1.3733E-01 -2.3917E-02  5.1483E-02 -9.8247E-02 -3.4317E-02  6.4803E-02 -1.2733E-01  9.5397E-02

             11          12          13          14          15          16          17          18          19          20

  11    -6.6362E-03
  12    -4.3158E-03 -1.6528E-03
  13     0.0000E+00  0.0000E+00 -1.5814E-03
  14     0.0000E+00  0.0000E+00  1.3071E-02  1.3512E-02
  15     0.0000E+00  0.0000E+00 -9.3715E-03 -1.6232E-02  1.9692E-02
  16    -1.0532E-02 -6.8338E-03  0.0000E+00  0.0000E+00  0.0000E+00 -1.6896E-02
  17    -6.8338E-03 -2.6408E-03  0.0000E+00  0.0000E+00  0.0000E+00 -1.0931E-02 -4.2739E-03
  18     0.0000E+00  0.0000E+00 -2.4158E-03  2.0891E-02 -1.5290E-02  0.0000E+00  0.0000E+00 -3.6546E-03
  19     0.0000E+00  0.0000E+00  2.0891E-02  2.1707E-02 -2.6483E-02  0.0000E+00  0.0000E+00  3.3865E-02  3.5450E-02
  20    -6.2195E-04 -3.5908E-04  0.0000E+00  0.0000E+00  0.0000E+00 -9.0672E-04 -5.2350E-04  0.0000E+00  0.0000E+00  0.0000E+00
  21     0.0000E+00  0.0000E+00  7.0614E-04  1.5163E-03 -1.6677E-03  0.0000E+00  0.0000E+00  1.1480E-03  2.4159E-03  0.0000E+00
  22     0.0000E+00  0.0000E+00  7.0088E-04  7.0614E-04 -9.6286E-04  0.0000E+00  0.0000E+00  1.0902E-03  1.1480E-03  0.0000E+00
  23     3.4916E-04  3.2238E-04  0.0000E+00  0.0000E+00  0.0000E+00  5.1496E-04  4.5972E-04  0.0000E+00  0.0000E+00  0.0000E+00
  24     7.2556E-04  3.4916E-04  0.0000E+00  0.0000E+00  0.0000E+00  1.0543E-03  5.1496E-04  0.0000E+00  0.0000E+00  0.0000E+00
  25     0.0000E+00  0.0000E+00  9.8338E-04 -5.6776E-04 -9.5406E-19  0.0000E+00  0.0000E+00  1.4337E-03 -8.2772E-04  0.0000E+00
  26     0.0000E+00  0.0000E+00 -1.2912E-03 -2.2364E-03  2.2564E-03  0.0000E+00  0.0000E+00 -2.0536E-03 -3.5569E-03  0.0000E+00
  27    -2.7804E-04 -4.8159E-04  1.6002E-04 -2.7717E-04 -1.2815E-04 -3.7848E-04 -6.5555E-04  2.1783E-04 -3.7729E-04  0.0000E+00
  28     3.1067E-03  5.3810E-03 -1.7880E-03  3.0969E-03  1.5729E-03  4.6451E-03  8.0456E-03 -2.6734E-03  4.6305E-03  0.0000E+00
  29     2.7515E-02  4.7657E-02 -1.5835E-02  2.7428E-02  1.4856E-02  4.3874E-02  7.5991E-02 -2.5251E-02  4.3735E-02 -2.6343E-03
  30     4.3343E-02  7.5073E-02 -2.4945E-02  4.3206E-02  2.1802E-02  6.4389E-02  1.1152E-01 -3.7058E-02  6.4186E-02 -3.9374E-03
  31     4.7383E-04  1.9972E-03 -1.0546E-03  4.7234E-04  9.5980E-04  8.4554E-04  3.2033E-03 -1.6422E-03  8.4287E-04  0.0000E+00
  32     1.9972E-03  2.7800E-03 -4.7234E-04  1.6000E-03  1.6624E-03  3.2033E-03  4.5444E-03 -8.4287E-04  2.6154E-03  0.0000E+00
  33     1.6126E-03  2.7931E-03 -1.1531E-03  1.9972E-03 -7.1123E-05  2.6357E-03  4.5651E-03 -1.8494E-03  3.2033E-03  0.0000E+00
  34    -3.4654E-03 -2.4062E-02  1.3996E-02 -3.4545E-03 -1.3529E-02 -6.1855E-03 -4.0235E-02  2.3179E-02 -6.1660E-03  6.4662E-04
  35    -2.4062E-02 -3.1250E-02  3.4545E-03 -1.7985E-02 -2.3433E-02 -4.0235E-02 -5.2645E-02  6.1660E-03 -3.0299E-02  1.1200E-03
  36    -1.8137E-02 -3.1415E-02  1.3892E-02 -2.4062E-02  6.0144E-03 -3.0553E-02 -5.2920E-02  2.3230E-02 -4.0235E-02  2.1747E-03
  37     1.8550E-02 -7.4302E-02  6.0054E-02  1.8491E-02 -5.1561E-02  2.9576E-02 -1.0774E-01  8.8625E-02  2.9483E-02 -8.3133E-04
  38    -7.4302E-02 -6.7247E-02 -1.8491E-02 -3.8702E-02 -8.9306E-02 -1.0774E-01 -9.4836E-02 -2.9483E-02 -5.4581E-02 -1.4399E-03
  39    -3.9172E-02 -6.7848E-02  4.2898E-02 -7.4302E-02  6.9383E-02 -5.5262E-02 -9.5716E-02  6.2206E-02 -1.0774E-01  1.2711E-02
  40    -1.2269E-02 -2.1250E-02 -5.5077E-02  9.5397E-02 -1.8343E-01 -1.9012E-02 -3.2929E-02 -7.8879E-02  1.3662E-01 -1.2052E-02
  41    -1.8091E-02  5.9198E-02 -1.0265E-01 -3.8135E-02 -1.9012E-02 -2.7649E-02  7.9039E-02 -1.4621E-01 -5.8883E-02 -6.5310E-03
  42     5.9198E-02  5.0265E-02  3.8135E-02  5.8619E-02 -3.2929E-02  7.9039E-02  6.3617E-02  5.8883E-02  7.8222E-02 -1.1312E-02
  43    -1.0265E-01  3.8135E-02 -6.4259E-02 -4.0191E-02 -7.8879E-02 -1.4621E-01  5.8883E-02 -9.1861E-02 -5.5932E-02 -8.5624E-03
  44    -3.8135E-02  5.8619E-02 -4.0191E-02 -1.7850E-02  1.3662E-01 -5.8883E-02  7.8222E-02 -5.5932E-02 -2.7277E-02  1.4830E-02
  45     2.7804E-04  4.8159E-04  1.6002E-04 -2.7717E-04 -1.2815E-04  3.7848E-04  6.5555E-04  2.1783E-04 -3.7729E-04  0.0000E+00
  46    -3.1067E-03 -5.3810E-03 -1.7880E-03  3.0969E-03  1.5729E-03 -4.6451E-03 -8.0456E-03 -2.6734E-03  4.6305E-03  0.0000E+00
  47    -2.7515E-02 -4.7657E-02 -1.5835E-02  2.7428E-02  1.4856E-02 -4.3874E-02 -7.5991E-02 -2.5251E-02  4.3735E-02  2.6343E-03
  48    -4.3343E-02 -7.5073E-02 -2.4945E-02  4.3206E-02  2.1802E-02 -6.4389E-02 -1.1152E-01 -3.7058E-02  6.4186E-02  3.9374E-03
  49    -4.7383E-04 -1.9972E-03 -1.0546E-03  4.7234E-04  9.5980E-04 -8.4554E-04 -3.2033E-03 -1.6422E-03  8.4287E-04  0.0000E+00
  50    -1.9972E-03 -2.7800E-03 -4.7234E-04  1.6000E-03  1.6624E-03 -3.2033E-03 -4.5444E-03 -8.4287E-04  2.6154E-03  0.0000E+00
  51     1.6126E-03  2.7931E-03  1.1531E-03 -1.9972E-03  7.1123E-05  2.6357E-03  4.5651E-03  1.8494E-03 -3.2033E-03  0.0000E+00
  52     3.4654E-03  2.4062E-02  1.3996E-02 -3.4545E-03 -1.3529E-02  6.1855E-03  4.0235E-02  2.3179E-02 -6.1660E-03 -6.4662E-04
  53     2.4062E-02  3.1250E-02  3.4545E-03 -1.7985E-02 -2.3433E-02  4.0235E-02  5.2645E-02  6.1660E-03 -3.0299E-02 -1.1200E-03
  54    -1.8137E-02 -3.1415E-02 -1.3892E-02  2.4062E-02 -6.0144E-03 -3.0553E-02 -5.2920E-02 -2.3230E-02  4.0235E-02  2.1747E-03
  55    -1.8550E-02  7.4302E-02  6.0054E-02  1.8491E-02 -5.1561E-02 -2.9576E-02  1.0774E-01  8.8625E-02  2.9483E-02  8.3133E-04
  56     7.4302E-02  6.7247E-02 -1.8491E-02 -3.8702E-02 -8.9306E-02  1.0774E-01  9.4836E-02 -2.9483E-02 -5.4581E-02  1.4399E-03
  57    -3.9172E-02 -6.7848E-02 -4.2898E-02  7.4302E-02 -6.9383E-02 -5.5262E-02 -9.5716E-02 -6.2206E-02  1.0774E-01  1.2711E-02
  58     1.2269E-02  2.1250E-02 -5.5077E-02  9.5397E-02 -1.8343E-01  1.9012E-02  3.2929E-02 -7.8879E-02  1.3662E-01  1.2052E-02
  59    -1.8091E-02  5.9198E-02  1.0265E-01  3.8135E-02  1.9012E-02 -2.7649E-02  7.9039E-02  1.4621E-01  5.8883E-02 -6.5310E-03
  60     5.9198E-02  5.0265E-02 -3.8135E-02 -5.8619E-02  3.2929E-02  7.9039E-02  6.3617E-02 -5.8883E-02 -7.8222E-02 -1.1312E-02
  61     1.0265E-01 -3.8135E-02 -6.4259E-02 -4.0191E-02 -7.8879E-02  1.4621E-01 -5.8883E-02 -9.1861E-02 -5.5932E-02  8.5624E-03
  62     3.8135E-02 -5.8619E-02 -4.0191E-02 -1.7850E-02  1.3662E-01  5.8883E-02 -7.8222E-02 -5.5932E-02 -2.7277E-02 -1.4830E-02

             21          22          23          24          25          26          27          28          29          30

  21     0.0000E+00
  22     0.0000E+00  0.0000E+00
  23     0.0000E+00  0.0000E+00  0.0000E+00
  24     0.0000E+00  0.0000E+00  0.0000E+00  0.0000E+00
  25     0.0000E+00  0.0000E+00  0.0000E+00  0.0000E+00  0.0000E+00
  26     0.0000E+00  0.0000E+00  0.0000E+00  0.0000E+00  0.0000E+00  0.0000E+00
  27     0.0000E+00  0.0000E+00  0.0000E+00  0.0000E+00  0.0000E+00  0.0000E+00  0.0000E+00
  28     0.0000E+00  0.0000E+00  0.0000E+00  0.0000E+00  0.0000E+00  0.0000E+00  0.0000E+00  0.0000E+00
  29     2.5153E-03  4.3566E-03 -3.4226E-03  5.9281E-03 -3.2167E-03 -6.1855E-19  0.0000E+00  3.8218E-06  1.0507E-03
  30     3.7596E-03  6.5118E-03 -5.1157E-03  8.8606E-03 -4.8079E-03 -9.2454E-19 -1.9230E-04  1.9409E-03  1.8590E-02  7.0746E-02
  31     0.0000E+00  0.0000E+00  0.0000E+00  0.0000E+00  0.0000E+00  0.0000E+00  0.0000E+00  0.0000E+00  4.1947E-06  1.0815E-03
  32     0.0000E+00  0.0000E+00  0.0000E+00  0.0000E+00  0.0000E+00  0.0000E+00  0.0000E+00  0.0000E+00  2.4218E-06  6.2440E-04
  33     0.0000E+00  0.0000E+00  0.0000E+00  0.0000E+00  0.0000E+00  0.0000E+00  0.0000E+00  0.0000E+00  0.0000E+00  0.0000E+00
  34    -7.2642E-04 -2.0015E-03  2.0117E-03 -1.4616E-03  9.3026E-04  7.1291E-04  0.0000E+00  0.0000E+00 -4.6877E-04 -1.3477E-02
  35    -2.0015E-03 -3.0375E-03  1.4616E-03 -3.6994E-03  1.6113E-03 -4.1160E-04  0.0000E+00  0.0000E+00 -2.7065E-04 -7.7807E-03
  36    -1.0845E-03 -1.8785E-03  2.1447E-03 -3.7148E-03  2.3315E-03  4.4834E-19  0.0000E+00  0.0000E+00  0.0000E+00  0.0000E+00
  37    -6.7426E-04 -1.1178E-02  1.4697E-02  1.7839E-03  8.7967E-04  9.6005E-03  4.2589E-04 -4.3359E-03 -3.9255E-02 -1.1757E-01
  38    -1.1178E-02 -1.3581E-02 -1.7839E-03 -1.2637E-02  1.5236E-03 -5.5429E-03  2.4589E-04 -2.5033E-03 -2.2664E-02 -6.7879E-02
  39     1.2206E-03  2.1141E-03  7.3480E-03 -1.2727E-02  1.1159E-02  2.1459E-18  0.0000E+00  0.0000E+00  0.0000E+00  0.0000E+00
  40    -1.2537E-02 -2.1714E-02 -4.1459E-03  7.1809E-03 -1.8593E-02 -3.5753E-18  1.1273E-03 -1.0252E-02 -5.8046E-02 -1.0680E-01
  41     3.5357E-03  7.5106E-04 -1.6078E-02 -3.4322E-03 -4.5038E-04 -1.9151E-02  0.0000E+00  0.0000E+00  0.0000E+00  0.0000E+00
  42     7.5106E-04  4.4029E-03  3.4322E-03  1.2115E-02 -7.8009E-04  1.1057E-02  0.0000E+00  0.0000E+00  0.0000E+00  0.0000E+00
  43    -1.7205E-02  4.7612E-04 -1.7499E-02 -1.2206E-02  2.0484E-03 -7.9233E-03 -9.7624E-04  8.8787E-03  5.0269E-02  9.2493E-02
  44    -4.7612E-04  1.6655E-02 -1.2206E-02 -3.4054E-03 -3.5478E-03 -4.5745E-03 -1.6909E-03  1.5378E-02  8.7068E-02  1.6020E-01
  45     0.0000E+00  0.0000E+00  0.0000E+00  0.0000E+00  0.0000E+00  0.0000E+00  0.0000E+00  0.0000E+00  0.0000E+00 -9.4834E-07
  46     0.0000E+00  0.0000E+00  0.0000E+00  0.0000E+00  0.0000E+00  0.0000E+00  0.0000E+00  0.0000E+00  0.0000E+00  1.2746E-05
  47     2.5153E-03  4.3566E-03  3.4226E-03 -5.9281E-03 -3.2167E-03  6.1855E-19  0.0000E+00  0.0000E+00  1.0571E-06  3.9729E-04
  48     3.7596E-03  6.5118E-03  5.1157E-03 -8.8606E-03 -4.8079E-03  9.2454E-19 -9.4834E-07  1.2746E-05  3.9729E-04  4.9216E-03
  49     0.0000E+00  0.0000E+00  0.0000E+00  0.0000E+00  0.0000E+00  0.0000E+00  0.0000E+00  0.0000E+00  0.0000E+00  6.7983E-06
  50     0.0000E+00  0.0000E+00  0.0000E+00  0.0000E+00  0.0000E+00  0.0000E+00  0.0000E+00  0.0000E+00  0.0000E+00  3.9250E-06
  51     0.0000E+00  0.0000E+00  0.0000E+00  0.0000E+00  0.0000E+00  0.0000E+00  0.0000E+00  0.0000E+00  0.0000E+00 -7.8749E-06
  52    -7.2642E-04 -2.0015E-03 -2.0117E-03  1.4616E-03  9.3026E-04  7.1291E-04  0.0000E+00  0.0000E+00  0.0000E+00 -1.7077E-04
  53    -2.0015E-03 -3.0375E-03 -1.4616E-03  3.6994E-03  1.6113E-03 -4.1160E-04  0.0000E+00  0.0000E+00  0.0000E+00 -9.8594E-05
  54     1.0845E-03  1.8785E-03  2.1447E-03 -3.7148E-03 -2.3315E-03  4.4834E-19  0.0000E+00  0.0000E+00  0.0000E+00  1.9781E-04
  55    -6.7426E-04 -1.1178E-02 -1.4697E-02 -1.7839E-03  8.7967E-04  9.6005E-03  0.0000E+00 -1.4591E-05 -5.7345E-04 -6.8495E-03
  56    -1.1178E-02 -1.3581E-02  1.7839E-03  1.2637E-02  1.5236E-03 -5.5429E-03  0.0000E+00 -8.4244E-06 -3.3108E-04 -3.9546E-03
  57    -1.2206E-03 -2.1141E-03  7.3480E-03 -1.2727E-02 -1.1159E-02  2.1459E-18  0.0000E+00  1.6902E-05  6.6425E-04  7.9342E-03
  58    -1.2537E-02 -2.1714E-02  4.1459E-03 -7.1809E-03 -1.8593E-02  3.5753E-18 -5.3469E-06  6.4889E-05  1.2229E-03  7.4276E-03
  59    -3.5357E-03 -7.5106E-04 -1.6078E-02 -3.4322E-03  4.5038E-04  1.9151E-02  1.5890E-05 -1.9284E-04 -3.6341E-03 -2.2074E-02
  60    -7.5106E-04 -4.4029E-03  3.4322E-03  1.2115E-02  7.8009E-04 -1.1057E-02  9.1741E-06 -1.1134E-04 -2.0982E-03 -1.2744E-02
  61    -1.7205E-02  4.7612E-04  1.7499E-02  1.2206E-02  2.0484E-03 -7.9233E-03 -4.5726E-06  5.5492E-05  1.0458E-03  6.3520E-03
  62    -4.7612E-04  1.6655E-02  1.2206E-02  3.4054E-03 -3.5478E-03 -4.5745E-03 -7.9199E-06  9.6115E-05  1.8113E-03  1.1002E-02

             31          32          33          34          35          36          37          38          39          40

  31     0.0000E+00
  32     0.0000E+00  0.0000E+00
  33     0.0000E+00  0.0000E+00  0.0000E+00
  34     0.0000E+00  0.0000E+00  0.0000E+00 -1.0248E-04
  35     0.0000E+00  0.0000E+00  0.0000E+00 -6.2641E-05 -3.0149E-05
  36     0.0000E+00  0.0000E+00  0.0000E+00  0.0000E+00  0.0000E+00  6.0171E-06
  37     2.4200E-03  1.5816E-03  0.0000E+00 -2.8584E-02 -1.9142E-02  0.0000E+00 -1.7164E-01
  38     1.5816E-03  5.9379E-04  0.0000E+00 -1.9142E-02 -6.4805E-03  0.0000E+00 -1.2709E-01 -2.4885E-02
  39     0.0000E+00  0.0000E+00 -3.1934E-04  0.0000E+00  0.0000E+00  4.5712E-03  0.0000E+00  0.0000E+00  4.8492E-02
  40     4.7101E-03  2.7194E-03  0.0000E+00 -4.2032E-02 -2.4267E-02  0.0000E+00 -1.3139E-01 -7.5857E-02  0.0000E+00  1.1040E-01
  41     0.0000E+00  0.0000E+00  1.9948E-03  0.0000E+00  0.0000E+00 -2.1568E-02  0.0000E+00  0.0000E+00 -1.2371E-01  0.0000E+00
  42     0.0000E+00  0.0000E+00  1.1517E-03  0.0000E+00  0.0000E+00 -1.2452E-02  0.0000E+00  0.0000E+00 -7.1425E-02  0.0000E+00
  43    -3.0817E-03 -4.0826E-03  0.0000E+00  2.5617E-02  3.9695E-02  0.0000E+00  5.1930E-02  1.7283E-01  0.0000E+00 -3.5900E-02
  44    -7.6411E-03 -3.0817E-03  0.0000E+00  6.9275E-02  2.5617E-02  0.0000E+00  2.3279E-01  5.1930E-02  0.0000E+00 -6.2180E-02
  45     0.0000E+00  0.0000E+00  0.0000E+00  0.0000E+00  0.0000E+00  0.0000E+00  0.0000E+00  0.0000E+00  0.0000E+00 -5.3469E-06
  46     0.0000E+00  0.0000E+00  0.0000E+00  0.0000E+00  0.0000E+00  0.0000E+00  1.4591E-05  8.4244E-06 -1.6902E-05  6.4889E-05
  47     0.0000E+00  0.0000E+00  0.0000E+00  0.0000E+00  0.0000E+00  0.0000E+00  5.7345E-04  3.3108E-04 -6.6425E-04  1.2229E-03
  48    -6.7983E-06 -3.9250E-06  7.8749E-06  1.7077E-04  9.8594E-05 -1.9781E-04  6.8495E-03  3.9546E-03 -7.9342E-03  7.4276E-03
  49     0.0000E+00  0.0000E+00  0.0000E+00  0.0000E+00  0.0000E+00  0.0000E+00  7.6935E-06  5.0294E-06 -1.0091E-05  4.2397E-05
  50     0.0000E+00  0.0000E+00  0.0000E+00  0.0000E+00  0.0000E+00  0.0000E+00  5.0294E-06  1.8860E-06 -5.8259E-06  2.4478E-05
  51     0.0000E+00  0.0000E+00  0.0000E+00  0.0000E+00  0.0000E+00  0.0000E+00 -1.0091E-05 -5.8259E-06  1.0671E-05 -2.5138E-05
  52     0.0000E+00  0.0000E+00  0.0000E+00  0.0000E+00  0.0000E+00  0.0000E+00 -2.2021E-04 -1.4747E-04  2.9588E-04 -8.2767E-04
  53     0.0000E+00  0.0000E+00  0.0000E+00  0.0000E+00  0.0000E+00  0.0000E+00 -1.4747E-04 -4.9926E-05  1.7082E-04 -4.7785E-04
  54     0.0000E+00  0.0000E+00  0.0000E+00  0.0000E+00  0.0000E+00  0.0000E+00  2.9588E-04  1.7082E-04 -3.0751E-04  4.2913E-04
  55     7.6935E-06  5.0294E-06 -1.0091E-05 -2.2021E-04 -1.4747E-04  2.9588E-04 -8.1650E-03 -6.0459E-03  1.2130E-02 -1.5892E-02
  56     5.0294E-06  1.8860E-06 -5.8259E-06 -1.4747E-04 -4.9926E-05  1.7082E-04 -6.0459E-03 -1.1838E-03  7.0033E-03 -9.1750E-03
  57    -1.0091E-05 -5.8259E-06  1.0671E-05  2.9588E-04  1.7082E-04 -3.0751E-04  1.2130E-02  7.0033E-03 -1.1744E-02  4.1586E-03
  58    -4.2397E-05 -2.4478E-05  2.5138E-05  8.2767E-04  4.7785E-04 -4.2913E-04  1.5892E-02  9.1750E-03 -4.1586E-03 -2.5774E-02
  59     9.1654E-05  6.0907E-05 -1.1025E-04 -1.7010E-03 -1.1586E-03  2.0606E-03 -2.6814E-02 -2.0231E-02  3.3488E-02 -2.1420E-02
  60     6.0907E-05  2.1324E-05 -6.3654E-05 -1.1586E-03 -3.6316E-04  1.1897E-03 -2.0231E-02 -3.4534E-03  1.9334E-02 -1.2367E-02
  61    -1.8409E-05 -2.4425E-05  3.5165E-05  3.1351E-04  4.8581E-04 -6.6892E-04  2.9813E-03  9.9223E-03 -1.1680E-02  1.6989E-02
  62    -4.5682E-05 -1.8409E-05  6.0907E-05  8.4782E-04  3.1351E-04 -1.1586E-03  1.3365E-02  2.9813E-03 -2.0231E-02  2.9425E-02

             41          42          43          44          45          46          47          48          49          50

  41    -2.0764E-01
  42    -1.5969E-01 -2.3250E-02
  43     0.0000E+00  0.0000E+00 -1.7655E-01
  44     0.0000E+00  0.0000E+00  2.1354E-01  7.0021E-02
  45     1.5890E-05  9.1741E-06 -4.5726E-06 -7.9199E-06  0.0000E+00
  46    -1.9284E-04 -1.1134E-04  5.5492E-05  9.6115E-05  0.0000E+00  0.0000E+00
  47    -3.6341E-03 -2.0982E-03  1.0458E-03  1.8113E-03  0.0000E+00  3.8218E-06  1.0507E-03
  48    -2.2074E-02 -1.2744E-02  6.3520E-03  1.1002E-02 -1.9230E-04  1.9409E-03  1.8590E-02  7.0746E-02
  49    -9.1654E-05 -6.0907E-05  1.8409E-05  4.5682E-05  0.0000E+00  0.0000E+00  4.1947E-06  1.0815E-03  0.0000E+00
  50    -6.0907E-05 -2.1324E-05  2.4425E-05  1.8409E-05  0.0000E+00  0.0000E+00  2.4218E-06  6.2440E-04  0.0000E+00  0.0000E+00
  51     1.1025E-04  6.3654E-05 -3.5165E-05 -6.0907E-05  0.0000E+00  0.0000E+00  0.0000E+00  0.0000E+00  0.0000E+00  0.0000E+00
  52     1.7010E-03  1.1586E-03 -3.1351E-04 -8.4782E-04  0.0000E+00  0.0000E+00 -4.6877E-04 -1.3477E-02  0.0000E+00  0.0000E+00
  53     1.1586E-03  3.6316E-04 -4.8581E-04 -3.1351E-04  0.0000E+00  0.0000E+00 -2.7065E-04 -7.7807E-03  0.0000E+00  0.0000E+00
  54    -2.0606E-03 -1.1897E-03  6.6892E-04  1.1586E-03  0.0000E+00  0.0000E+00  0.0000E+00  0.0000E+00  0.0000E+00  0.0000E+00
  55     2.6814E-02  2.0231E-02 -2.9813E-03 -1.3365E-02  4.2589E-04 -4.3359E-03 -3.9255E-02 -1.1757E-01  2.4200E-03  1.5816E-03
  56     2.0231E-02  3.4534E-03 -9.9223E-03 -2.9813E-03  2.4589E-04 -2.5033E-03 -2.2664E-02 -6.7879E-02  1.5816E-03  5.9379E-04
  57    -3.3488E-02 -1.9334E-02  1.1680E-02  2.0231E-02  0.0000E+00  0.0000E+00  0.0000E+00  0.0000E+00  0.0000E+00  0.0000E+00
  58    -2.1420E-02 -1.2367E-02  1.6989E-02  2.9425E-02  1.1273E-03 -1.0252E-02 -5.8046E-02 -1.0680E-01  4.7101E-03  2.7194E-03
  59     6.1688E-02  4.7442E-02 -7.3236E-03 -3.7762E-02  0.0000E+00  0.0000E+00  0.0000E+00  0.0000E+00  0.0000E+00  0.0000E+00
  60     4.7442E-02  6.9074E-03 -2.9306E-02 -7.3236E-03  0.0000E+00  0.0000E+00  0.0000E+00  0.0000E+00  0.0000E+00  0.0000E+00
  61    -7.3236E-03 -2.9306E-02 -1.1968E-02  1.4475E-02 -9.7624E-04  8.8787E-03  5.0269E-02  9.2493E-02 -3.0817E-03 -4.0826E-03
  62    -3.7762E-02 -7.3236E-03  1.4475E-02  4.7464E-03 -1.6909E-03  1.5378E-02  8.7068E-02  1.6020E-01 -7.6411E-03 -3.0817E-03

             51          52          53          54          55          56          57          58          59          60

  51     0.0000E+00
  52     0.0000E+00 -1.0248E-04
  53     0.0000E+00 -6.2641E-05 -3.0149E-05
  54     0.0000E+00  0.0000E+00  0.0000E+00  6.0171E-06
  55     0.0000E+00 -2.8584E-02 -1.9142E-02  0.0000E+00 -1.7164E-01
  56     0.0000E+00 -1.9142E-02 -6.4805E-03  0.0000E+00 -1.2709E-01 -2.4885E-02
  57    -3.1934E-04  0.0000E+00  0.0000E+00  4.5712E-03  0.0000E+00  0.0000E+00  4.8492E-02
  58     0.0000E+00 -4.2032E-02 -2.4267E-02  0.0000E+00 -1.3139E-01 -7.5857E-02  0.0000E+00  1.1040E-01
  59     1.9948E-03  0.0000E+00  0.0000E+00 -2.1568E-02  0.0000E+00  0.0000E+00 -1.2371E-01  0.0000E+00 -2.0764E-01
  60     1.1517E-03  0.0000E+00  0.0000E+00 -1.2452E-02  0.0000E+00  0.0000E+00 -7.1425E-02  0.0000E+00 -1.5969E-01 -2.3250E-02
  61     0.0000E+00  2.5617E-02  3.9695E-02  0.0000E+00  5.1930E-02  1.7283E-01  0.0000E+00 -3.5900E-02  0.0000E+00  0.0000E+00
  62     0.0000E+00  6.9275E-02  2.5617E-02  0.0000E+00  2.3279E-01  5.1930E-02  0.0000E+00 -6.2180E-02  0.0000E+00  0.0000E+00

             61          62
  61    -1.7655E-01
  62     2.1354E-01  7.0021E-02

 OVERLAP MATRIX - CELL N.   3(  1  1  0)

              1           2           3           4           5           6           7           8           9          10

   1     0.0000E+00
   2     0.0000E+00  0.0000E+00
   3     0.0000E+00  3.3352E-05  5.0216E-04
   4     4.4142E-06  1.0055E-04  8.6280E-04 -1.2919E-03
   5     2.5485E-06  5.8050E-05  4.9814E-04 -8.2202E-04 -3.4275E-04
   6     0.0000E+00  0.0000E+00  0.0000E+00  0.0000E+00  0.0000E+00  1.3185E-04
   7     0.0000E+00  6.3771E-05  1.0275E-03 -1.6799E-03 -1.0618E-03  0.0000E+00 -2.0857E-03
   8     0.0000E+00  3.6818E-05  5.9322E-04 -1.0618E-03 -4.5379E-04  0.0000E+00 -1.3046E-03 -5.7920E-04
   9     0.0000E+00  0.0000E+00  0.0000E+00  0.0000E+00  0.0000E+00  1.5925E-04  0.0000E+00  0.0000E+00  1.7403E-04
  10    -6.3841E-05 -6.7549E-04 -3.0604E-03  3.8926E-03  2.2474E-03  0.0000E+00  5.7055E-03  3.2941E-03  0.0000E+00  7.5787E-03
  11     0.0000E+00  0.0000E+00  0.0000E+00  0.0000E+00  0.0000E+00  1.1889E-03  0.0000E+00  0.0000E+00  1.6732E-03  0.0000E+00
  12     0.0000E+00  0.0000E+00  0.0000E+00  0.0000E+00  0.0000E+00  6.8643E-04  0.0000E+00  0.0000E+00  9.6603E-04  0.0000E+00
  13     5.5288E-05  5.8499E-04  2.6504E-03 -2.7766E-03 -2.9759E-03  0.0000E+00 -4.1045E-03 -4.3018E-03  0.0000E+00 -5.8368E-03
  14     9.5761E-05  1.0132E-03  4.5907E-03 -6.1821E-03 -2.7766E-03  0.0000E+00 -9.0412E-03 -4.1045E-03  0.0000E+00 -1.0110E-02
  15    -6.2369E-05 -8.8552E-04 -4.6771E-03  6.0380E-03  3.4861E-03  0.0000E+00  9.0005E-03  5.1964E-03  0.0000E+00  1.2126E-02
  16     0.0000E+00  0.0000E+00  0.0000E+00  0.0000E+00  0.0000E+00  1.7825E-03  0.0000E+00  0.0000E+00  2.5053E-03  0.0000E+00
  17     0.0000E+00  0.0000E+00  0.0000E+00  0.0000E+00  0.0000E+00  1.0291E-03  0.0000E+00  0.0000E+00  1.4464E-03  0.0000E+00
  18     5.4014E-05  7.6688E-04  4.0505E-03 -4.3378E-03 -4.5627E-03  0.0000E+00 -6.5420E-03 -6.6699E-03  0.0000E+00 -9.3715E-03
  19     9.3554E-05  1.3283E-03  7.0156E-03 -9.5716E-03 -4.3378E-03  0.0000E+00 -1.4224E-02 -6.5420E-03  0.0000E+00 -1.6232E-02
  20     0.0000E+00  0.0000E+00  0.0000E+00  0.0000E+00  0.0000E+00 -4.4640E-05  0.0000E+00  0.0000E+00 -3.4104E-05  0.0000E+00
  21     0.0000E+00  0.0000E+00 -1.0322E-04  2.2270E-04  1.3910E-04  0.0000E+00  2.1284E-04  1.3092E-04  0.0000E+00  1.0575E-03
  22     0.0000E+00  0.0000E+00 -5.9594E-05  1.3910E-04  6.2084E-05  0.0000E+00  1.3092E-04  6.1664E-05  0.0000E+00  6.1053E-04
  23     0.0000E+00  0.0000E+00  0.0000E+00  0.0000E+00  0.0000E+00  2.8815E-05  0.0000E+00  0.0000E+00  2.2014E-05  0.0000E+00
  24     0.0000E+00  0.0000E+00  0.0000E+00  0.0000E+00  0.0000E+00  4.9909E-05  0.0000E+00  0.0000E+00  3.8129E-05  0.0000E+00
  25     0.0000E+00  0.0000E+00  3.1792E-20  3.5291E-05 -6.1125E-05  0.0000E+00  2.6962E-05 -4.6699E-05  0.0000E+00 -5.3404E-19
  26     0.0000E+00  0.0000E+00  1.5387E-04 -3.3877E-04 -1.9559E-04  0.0000E+00 -3.2247E-04 -1.8618E-04  0.0000E+00 -1.4055E-03
  27     0.0000E+00  0.0000E+00  0.0000E+00  0.0000E+00  0.0000E+00  0.0000E+00  0.0000E+00  0.0000E+00  0.0000E+00  0.0000E+00
  28     0.0000E+00  0.0000E+00  0.0000E+00  0.0000E+00  0.0000E+00  0.0000E+00  0.0000E+00  0.0000E+00  0.0000E+00  0.0000E+00
  29     0.0000E+00  0.0000E+00  0.0000E+00  0.0000E+00  0.0000E+00  0.0000E+00  0.0000E+00  0.0000E+00  0.0000E+00  0.0000E+00
  30     0.0000E+00  4.8893E-06  3.1919E-05 -4.8631E-05 -1.6846E-05  1.6900E-05 -6.1334E-05 -2.1247E-05  2.1314E-05 -9.4425E-05
  31     0.0000E+00  0.0000E+00  0.0000E+00  0.0000E+00  0.0000E+00  0.0000E+00  0.0000E+00  0.0000E+00  0.0000E+00  0.0000E+00
  32     0.0000E+00  0.0000E+00  0.0000E+00  0.0000E+00  0.0000E+00  0.0000E+00  0.0000E+00  0.0000E+00  0.0000E+00  0.0000E+00
  33     0.0000E+00  0.0000E+00  0.0000E+00  0.0000E+00  0.0000E+00  0.0000E+00  0.0000E+00  0.0000E+00  0.0000E+00  0.0000E+00
  34     0.0000E+00  0.0000E+00  0.0000E+00  0.0000E+00  0.0000E+00  0.0000E+00  0.0000E+00  0.0000E+00  0.0000E+00  0.0000E+00
  35     0.0000E+00  0.0000E+00  0.0000E+00  0.0000E+00  0.0000E+00  0.0000E+00  0.0000E+00  0.0000E+00  0.0000E+00  0.0000E+00
  36     0.0000E+00  0.0000E+00  0.0000E+00  0.0000E+00  0.0000E+00  0.0000E+00  0.0000E+00  0.0000E+00  0.0000E+00  0.0000E+00
  37     0.0000E+00  7.7036E-06  6.0257E-05 -9.5264E-05 -3.4971E-05  3.5081E-05 -1.1736E-04 -4.2952E-05  4.3088E-05 -1.9411E-04
  38     0.0000E+00  2.6686E-06  2.0873E-05 -3.4971E-05 -6.4265E-06  1.2153E-05 -4.2952E-05 -8.2437E-06  1.4926E-05 -6.7241E-05
  39     0.0000E+00 -2.6770E-06 -2.0940E-05  3.5081E-05  1.2153E-05 -6.5033E-06  4.3088E-05  1.4926E-05 -8.3380E-06  9.9733E-05
  40     0.0000E+00 -3.6719E-05 -1.8410E-04  2.4190E-04  8.3798E-05 -1.2451E-04  3.2792E-04  1.1359E-04 -1.6672E-04  2.5200E-04
  41     0.0000E+00 -5.0317E-05 -2.5228E-04  3.6130E-04  1.3325E-04 -6.6470E-05  4.8825E-04  1.7969E-04 -9.2588E-05  7.5630E-04
  42     0.0000E+00 -1.7430E-05 -8.7392E-05  1.3325E-04  2.2806E-05 -2.3026E-05  1.7969E-04  3.1780E-05 -3.2074E-05  2.6199E-04
  43     0.0000E+00  6.3709E-05  3.1943E-04 -4.1983E-04 -1.9199E-04  1.6925E-04 -5.6911E-04 -2.5788E-04  2.2823E-04 -5.8617E-04
  44     0.0000E+00  5.0158E-05  2.5148E-04 -3.6016E-04 -6.5628E-05  1.3325E-04 -4.8671E-04 -9.1453E-05  1.7969E-04 -4.6149E-04
  45     0.0000E+00  0.0000E+00  0.0000E+00  0.0000E+00  0.0000E+00  0.0000E+00  0.0000E+00  0.0000E+00  0.0000E+00  0.0000E+00
  46     0.0000E+00  0.0000E+00  0.0000E+00  0.0000E+00  0.0000E+00  0.0000E+00  0.0000E+00  0.0000E+00  0.0000E+00  0.0000E+00
  47     0.0000E+00  0.0000E+00  0.0000E+00  0.0000E+00  0.0000E+00  0.0000E+00  0.0000E+00  0.0000E+00  0.0000E+00  0.0000E+00
  48     0.0000E+00  4.8893E-06  3.1919E-05 -4.8631E-05 -1.6846E-05 -1.6900E-05 -6.1334E-05 -2.1247E-05 -2.1314E-05 -9.4425E-05
  49     0.0000E+00  0.0000E+00  0.0000E+00  0.0000E+00  0.0000E+00  0.0000E+00  0.0000E+00  0.0000E+00  0.0000E+00  0.0000E+00
  50     0.0000E+00  0.0000E+00  0.0000E+00  0.0000E+00  0.0000E+00  0.0000E+00  0.0000E+00  0.0000E+00  0.0000E+00  0.0000E+00
  51     0.0000E+00  0.0000E+00  0.0000E+00  0.0000E+00  0.0000E+00  0.0000E+00  0.0000E+00  0.0000E+00  0.0000E+00  0.0000E+00
  52     0.0000E+00  0.0000E+00  0.0000E+00  0.0000E+00  0.0000E+00  0.0000E+00  0.0000E+00  0.0000E+00  0.0000E+00  0.0000E+00
  53     0.0000E+00  0.0000E+00  0.0000E+00  0.0000E+00  0.0000E+00  0.0000E+00  0.0000E+00  0.0000E+00  0.0000E+00  0.0000E+00
  54     0.0000E+00  0.0000E+00  0.0000E+00  0.0000E+00  0.0000E+00  0.0000E+00  0.0000E+00  0.0000E+00  0.0000E+00  0.0000E+00
  55     0.0000E+00  7.7036E-06  6.0257E-05 -9.5264E-05 -3.4971E-05 -3.5081E-05 -1.1736E-04 -4.2952E-05 -4.3088E-05 -1.9411E-04
  56     0.0000E+00  2.6686E-06  2.0873E-05 -3.4971E-05 -6.4265E-06 -1.2153E-05 -4.2952E-05 -8.2437E-06 -1.4926E-05 -6.7241E-05
  57     0.0000E+00  2.6770E-06  2.0940E-05 -3.5081E-05 -1.2153E-05 -6.5033E-06 -4.3088E-05 -1.4926E-05 -8.3380E-06 -9.9733E-05
  58     0.0000E+00 -3.6719E-05 -1.8410E-04  2.4190E-04  8.3798E-05  1.2451E-04  3.2792E-04  1.1359E-04  1.6672E-04  2.5200E-04
  59     0.0000E+00  5.0317E-05  2.5228E-04 -3.6130E-04 -1.3325E-04 -6.6470E-05 -4.8825E-04 -1.7969E-04 -9.2588E-05 -7.5630E-04
  60     0.0000E+00  1.7430E-05  8.7392E-05 -1.3325E-04 -2.2806E-05 -2.3026E-05 -1.7969E-04 -3.1780E-05 -3.2074E-05 -2.6199E-04
  61     0.0000E+00  6.3709E-05  3.1943E-04 -4.1983E-04 -1.9199E-04 -1.6925E-04 -5.6911E-04 -2.5788E-04 -2.2823E-04 -5.8617E-04
  62     0.0000E+00  5.0158E-05  2.5148E-04 -3.6016E-04 -6.5628E-05 -1.3325E-04 -4.8671E-04 -9.1453E-05 -1.7969E-04 -4.6149E-04

             11          12          13          14          15          16          17          18          19          20

  11    -6.6362E-03
  12    -4.3158E-03 -1.6528E-03
  13     0.0000E+00  0.0000E+00 -1.5814E-03
  14     0.0000E+00  0.0000E+00  1.3071E-02  1.3512E-02
  15     0.0000E+00  0.0000E+00 -9.3715E-03 -1.6232E-02  1.9692E-02
  16    -1.0532E-02 -6.8338E-03  0.0000E+00  0.0000E+00  0.0000E+00 -1.6896E-02
  17    -6.8338E-03 -2.6408E-03  0.0000E+00  0.0000E+00  0.0000E+00 -1.0931E-02 -4.2739E-03
  18     0.0000E+00  0.0000E+00 -2.4158E-03  2.0891E-02 -1.5290E-02  0.0000E+00  0.0000E+00 -3.6546E-03
  19     0.0000E+00  0.0000E+00  2.0891E-02  2.1707E-02 -2.6483E-02  0.0000E+00  0.0000E+00  3.3865E-02  3.5450E-02
  20     6.2195E-04  3.5908E-04  0.0000E+00  0.0000E+00  0.0000E+00  9.0672E-04  5.2350E-04  0.0000E+00  0.0000E+00  0.0000E+00
  21     0.0000E+00  0.0000E+00 -7.0614E-04 -1.5163E-03  1.6677E-03  0.0000E+00  0.0000E+00 -1.1480E-03 -2.4159E-03  0.0000E+00
  22     0.0000E+00  0.0000E+00 -7.0088E-04 -7.0614E-04  9.6286E-04  0.0000E+00  0.0000E+00 -1.0902E-03 -1.1480E-03  0.0000E+00
  23    -3.4916E-04 -3.2238E-04  0.0000E+00  0.0000E+00  0.0000E+00 -5.1496E-04 -4.5972E-04  0.0000E+00  0.0000E+00  0.0000E+00
  24    -7.2556E-04 -3.4916E-04  0.0000E+00  0.0000E+00  0.0000E+00 -1.0543E-03 -5.1496E-04  0.0000E+00  0.0000E+00  0.0000E+00
  25     0.0000E+00  0.0000E+00 -9.8338E-04  5.6776E-04 -9.5406E-19  0.0000E+00  0.0000E+00 -1.4337E-03  8.2772E-04  0.0000E+00
  26     0.0000E+00  0.0000E+00  1.2912E-03  2.2364E-03 -2.2564E-03  0.0000E+00  0.0000E+00  2.0536E-03  3.5569E-03  0.0000E+00
  27     0.0000E+00  0.0000E+00  0.0000E+00  0.0000E+00  0.0000E+00  0.0000E+00  0.0000E+00  0.0000E+00  0.0000E+00  0.0000E+00
  28     0.0000E+00  0.0000E+00  0.0000E+00  0.0000E+00  0.0000E+00  0.0000E+00  0.0000E+00  0.0000E+00  0.0000E+00  0.0000E+00
  29     0.0000E+00  0.0000E+00  0.0000E+00  0.0000E+00  0.0000E+00  0.0000E+00  0.0000E+00  0.0000E+00  0.0000E+00  0.0000E+00
  30    -1.2939E-04 -4.4823E-05  1.6383E-04  1.2898E-04 -1.4048E-04 -1.9250E-04 -6.6685E-05  2.4374E-04  1.9189E-04 -4.7667E-06
  31     0.0000E+00  0.0000E+00  0.0000E+00  0.0000E+00  0.0000E+00  0.0000E+00  0.0000E+00  0.0000E+00  0.0000E+00  0.0000E+00
  32     0.0000E+00  0.0000E+00  0.0000E+00  0.0000E+00  0.0000E+00  0.0000E+00  0.0000E+00  0.0000E+00  0.0000E+00  0.0000E+00
  33     0.0000E+00  0.0000E+00  0.0000E+00  0.0000E+00  0.0000E+00  0.0000E+00  0.0000E+00  0.0000E+00  0.0000E+00  0.0000E+00
  34     0.0000E+00  0.0000E+00  0.0000E+00  0.0000E+00  0.0000E+00  0.0000E+00  0.0000E+00  0.0000E+00  0.0000E+00  0.0000E+00
  35     0.0000E+00  0.0000E+00  0.0000E+00  0.0000E+00  0.0000E+00  0.0000E+00  0.0000E+00  0.0000E+00  0.0000E+00  0.0000E+00
  36     0.0000E+00  0.0000E+00  0.0000E+00  0.0000E+00  0.0000E+00  0.0000E+00  0.0000E+00  0.0000E+00  0.0000E+00  0.0000E+00
  37    -2.8978E-04 -1.0684E-04  3.3688E-04  2.8887E-04 -2.8849E-04 -4.2974E-04 -1.5820E-04  5.0068E-04  4.2838E-04  0.0000E+00
  38    -1.0684E-04 -1.8373E-05  1.5385E-04  5.2872E-05 -9.9936E-05 -1.5820E-04 -2.7850E-05  2.2718E-04  8.0141E-05  0.0000E+00
  39     5.3547E-05  1.8549E-05 -1.3570E-04 -1.0684E-04  1.4694E-04  8.1141E-05  2.8108E-05 -2.0094E-04 -1.5820E-04  0.0000E+00
  40     7.5630E-04  2.6199E-04 -5.8617E-04 -4.6149E-04  3.9141E-04  1.1590E-03  4.0151E-04 -9.0584E-04 -7.1316E-04  3.7703E-05
  41     3.8802E-04  1.4376E-04 -9.7320E-04 -8.4087E-04  1.1590E-03  6.0692E-04  2.2467E-04 -1.4983E-03 -1.2925E-03  3.0812E-05
  42     1.4376E-04  2.2821E-05 -4.5447E-04 -1.4224E-04  4.0151E-04  2.2467E-04  3.6167E-05 -6.9648E-04 -2.2235E-04  1.0674E-05
  43    -9.7320E-04 -4.5447E-04  9.3268E-04  1.1390E-03 -9.0584E-04 -1.4983E-03 -6.9648E-04  1.4432E-03  1.7489E-03 -5.3573E-05
  44    -8.4087E-04 -1.4224E-04  1.1390E-03  3.8271E-04 -7.1316E-04 -1.2925E-03 -2.2235E-04  1.7489E-03  5.9875E-04 -4.2178E-05
  45     0.0000E+00  0.0000E+00  0.0000E+00  0.0000E+00  0.0000E+00  0.0000E+00  0.0000E+00  0.0000E+00  0.0000E+00  0.0000E+00
  46     0.0000E+00  0.0000E+00  0.0000E+00  0.0000E+00  0.0000E+00  0.0000E+00  0.0000E+00  0.0000E+00  0.0000E+00  0.0000E+00
  47     0.0000E+00  0.0000E+00  0.0000E+00  0.0000E+00  0.0000E+00  0.0000E+00  0.0000E+00  0.0000E+00  0.0000E+00  0.0000E+00
  48     1.2939E-04  4.4823E-05  1.6383E-04  1.2898E-04 -1.4048E-04  1.9250E-04  6.6685E-05  2.4374E-04  1.9189E-04  4.7667E-06
  49     0.0000E+00  0.0000E+00  0.0000E+00  0.0000E+00  0.0000E+00  0.0000E+00  0.0000E+00  0.0000E+00  0.0000E+00  0.0000E+00
  50     0.0000E+00  0.0000E+00  0.0000E+00  0.0000E+00  0.0000E+00  0.0000E+00  0.0000E+00  0.0000E+00  0.0000E+00  0.0000E+00
  51     0.0000E+00  0.0000E+00  0.0000E+00  0.0000E+00  0.0000E+00  0.0000E+00  0.0000E+00  0.0000E+00  0.0000E+00  0.0000E+00
  52     0.0000E+00  0.0000E+00  0.0000E+00  0.0000E+00  0.0000E+00  0.0000E+00  0.0000E+00  0.0000E+00  0.0000E+00  0.0000E+00
  53     0.0000E+00  0.0000E+00  0.0000E+00  0.0000E+00  0.0000E+00  0.0000E+00  0.0000E+00  0.0000E+00  0.0000E+00  0.0000E+00
  54     0.0000E+00  0.0000E+00  0.0000E+00  0.0000E+00  0.0000E+00  0.0000E+00  0.0000E+00  0.0000E+00  0.0000E+00  0.0000E+00
  55     2.8978E-04  1.0684E-04  3.3688E-04  2.8887E-04 -2.8849E-04  4.2974E-04  1.5820E-04  5.0068E-04  4.2838E-04  0.0000E+00
  56     1.0684E-04  1.8373E-05  1.5385E-04  5.2872E-05 -9.9936E-05  1.5820E-04  2.7850E-05  2.2718E-04  8.0141E-05  0.0000E+00
  57     5.3547E-05  1.8549E-05  1.3570E-04  1.0684E-04 -1.4694E-04  8.1141E-05  2.8108E-05  2.0094E-04  1.5820E-04  0.0000E+00
  58    -7.5630E-04 -2.6199E-04 -5.8617E-04 -4.6149E-04  3.9141E-04 -1.1590E-03 -4.0151E-04 -9.0584E-04 -7.1316E-04 -3.7703E-05
  59     3.8802E-04  1.4376E-04  9.7320E-04  8.4087E-04 -1.1590E-03  6.0692E-04  2.2467E-04  1.4983E-03  1.2925E-03  3.0812E-05
  60     1.4376E-04  2.2821E-05  4.5447E-04  1.4224E-04 -4.0151E-04  2.2467E-04  3.6167E-05  6.9648E-04  2.2235E-04  1.0674E-05
  61     9.7320E-04  4.5447E-04  9.3268E-04  1.1390E-03 -9.0584E-04  1.4983E-03  6.9648E-04  1.4432E-03  1.7489E-03  5.3573E-05
  62     8.4087E-04  1.4224E-04  1.1390E-03  3.8271E-04 -7.1316E-04  1.2925E-03  2.2235E-04  1.7489E-03  5.9875E-04  4.2178E-05

             21          22          23          24          25          26          27          28          29          30

  21     0.0000E+00
  22     0.0000E+00  0.0000E+00
  23     0.0000E+00  0.0000E+00  0.0000E+00
  24     0.0000E+00  0.0000E+00  0.0000E+00  0.0000E+00
  25     0.0000E+00  0.0000E+00  0.0000E+00  0.0000E+00  0.0000E+00
[...]
  58     0.0000E+00  0.0000E+00  0.0000E+00  0.0000E+00  0.0000E+00  0.0000E+00  0.0000E+00  0.0000E+00  0.0000E+00  0.0000E+00
  59     0.0000E+00  0.0000E+00  0.0000E+00  0.0000E+00  0.0000E+00  0.0000E+00  0.0000E+00  0.0000E+00  0.0000E+00  0.0000E+00
  60     0.0000E+00  0.0000E+00  0.0000E+00  0.0000E+00  0.0000E+00  0.0000E+00  0.0000E+00  0.0000E+00  0.0000E+00  0.0000E+00
  61     0.0000E+00  0.0000E+00  0.0000E+00  0.0000E+00  0.0000E+00  0.0000E+00  0.0000E+00  0.0000E+00  0.0000E+00  0.0000E+00
  62     0.0000E+00  0.0000E+00  0.0000E+00  0.0000E+00  0.0000E+00  0.0000E+00  0.0000E+00  0.0000E+00  0.0000E+00  0.0000E+00

             11          12          13          14          15          16          17          18          19          20

  11     0.0000E+00
  12     0.0000E+00  0.0000E+00
  13     0.0000E+00  0.0000E+00  0.0000E+00
  14     0.0000E+00  0.0000E+00  0.0000E+00  0.0000E+00
  15     0.0000E+00  0.0000E+00  0.0000E+00  0.0000E+00  0.0000E+00
  16     0.0000E+00  0.0000E+00  0.0000E+00  0.0000E+00  0.0000E+00  0.0000E+00
  17     0.0000E+00  0.0000E+00  0.0000E+00  0.0000E+00  0.0000E+00  0.0000E+00  0.0000E+00
  18     0.0000E+00  0.0000E+00  0.0000E+00  0.0000E+00  0.0000E+00  0.0000E+00  0.0000E+00  0.0000E+00
  19     0.0000E+00  0.0000E+00  0.0000E+00  0.0000E+00  0.0000E+00  0.0000E+00  0.0000E+00  0.0000E+00  0.0000E+00
  20     0.0000E+00  0.0000E+00  0.0000E+00  0.0000E+00  0.0000E+00  0.0000E+00  0.0000E+00  0.0000E+00  0.0000E+00  0.0000E+00
  21     0.0000E+00  0.0000E+00  0.0000E+00  0.0000E+00  0.0000E+00  0.0000E+00  0.0000E+00  0.0000E+00  0.0000E+00  0.0000E+00
  22     0.0000E+00  0.0000E+00  0.0000E+00  0.0000E+00  0.0000E+00  0.0000E+00  0.0000E+00  0.0000E+00  0.0000E+00  0.0000E+00
  23     0.0000E+00  0.0000E+00  0.0000E+00  0.0000E+00  0.0000E+00  0.0000E+00  0.0000E+00  0.0000E+00  0.0000E+00  0.0000E+00
  24     0.0000E+00  0.0000E+00  0.0000E+00  0.0000E+00  0.0000E+00  0.0000E+00  0.0000E+00  0.0000E+00  0.0000E+00  0.0000E+00
  25     0.0000E+00  0.0000E+00  0.0000E+00  0.0000E+00  0.0000E+00  0.0000E+00  0.0000E+00  0.0000E+00  0.0000E+00  0.0000E+00
  26     0.0000E+00  0.0000E+00  0.0000E+00  0.0000E+00  0.0000E+00  0.0000E+00  0.0000E+00  0.0000E+00  0.0000E+00  0.0000E+00
  27     0.0000E+00  0.0000E+00  0.0000E+00  0.0000E+00  0.0000E+00  0.0000E+00  0.0000E+00  0.0000E+00  0.0000E+00  0.0000E+00
  28     0.0000E+00  0.0000E+00  0.0000E+00  0.0000E+00  0.0000E+00  0.0000E+00  0.0000E+00  0.0000E+00  0.0000E+00  0.0000E+00
  29     0.0000E+00  0.0000E+00  0.0000E+00  0.0000E+00  0.0000E+00  0.0000E+00  0.0000E+00  0.0000E+00  0.0000E+00  0.0000E+00
  30     0.0000E+00  0.0000E+00  0.0000E+00  0.0000E+00  0.0000E+00  0.0000E+00  0.0000E+00  0.0000E+00  0.0000E+00  0.0000E+00
  31     0.0000E+00  0.0000E+00  0.0000E+00  0.0000E+00  0.0000E+00  0.0000E+00  0.0000E+00  0.0000E+00  0.0000E+00  0.0000E+00
  32     0.0000E+00  0.0000E+00  0.0000E+00  0.0000E+00  0.0000E+00  0.0000E+00  0.0000E+00  0.0000E+00  0.0000E+00  0.0000E+00
  33     0.0000E+00  0.0000E+00  0.0000E+00  0.0000E+00  0.0000E+00  0.0000E+00  0.0000E+00  0.0000E+00  0.0000E+00  0.0000E+00
  34     0.0000E+00  0.0000E+00  0.0000E+00  0.0000E+00  0.0000E+00  0.0000E+00  0.0000E+00  0.0000E+00  0.0000E+00  0.0000E+00
  35     0.0000E+00  0.0000E+00  0.0000E+00  0.0000E+00  0.0000E+00  0.0000E+00  0.0000E+00  0.0000E+00  0.0000E+00  0.0000E+00
  36     0.0000E+00  0.0000E+00  0.0000E+00  0.0000E+00  0.0000E+00  0.0000E+00  0.0000E+00  0.0000E+00  0.0000E+00  0.0000E+00
  37     0.0000E+00  0.0000E+00  0.0000E+00  0.0000E+00  0.0000E+00  0.0000E+00  0.0000E+00  0.0000E+00  0.0000E+00  0.0000E+00
  38     0.0000E+00  0.0000E+00  0.0000E+00  0.0000E+00  0.0000E+00  0.0000E+00  0.0000E+00  0.0000E+00  0.0000E+00  0.0000E+00
  39     0.0000E+00  0.0000E+00  0.0000E+00  0.0000E+00  0.0000E+00  0.0000E+00  0.0000E+00  0.0000E+00  0.0000E+00  0.0000E+00
  40     0.0000E+00  0.0000E+00  0.0000E+00  0.0000E+00  0.0000E+00  0.0000E+00  0.0000E+00  0.0000E+00  0.0000E+00  0.0000E+00
  41     0.0000E+00  0.0000E+00  0.0000E+00  0.0000E+00  0.0000E+00  0.0000E+00  0.0000E+00  0.0000E+00  0.0000E+00  0.0000E+00
  42     0.0000E+00  0.0000E+00  0.0000E+00  0.0000E+00  0.0000E+00  0.0000E+00  0.0000E+00  0.0000E+00  0.0000E+00  0.0000E+00
  43     0.0000E+00  0.0000E+00  0.0000E+00  0.0000E+00  0.0000E+00  0.0000E+00  0.0000E+00  0.0000E+00  0.0000E+00  0.0000E+00
  44     0.0000E+00  0.0000E+00  0.0000E+00  0.0000E+00  0.0000E+00  0.0000E+00  0.0000E+00  0.0000E+00  0.0000E+00  0.0000E+00
  45     0.0000E+00  0.0000E+00  0.0000E+00  0.0000E+00  0.0000E+00  0.0000E+00  0.0000E+00  0.0000E+00  0.0000E+00  0.0000E+00
  46     0.0000E+00  0.0000E+00  0.0000E+00  0.0000E+00  0.0000E+00  0.0000E+00  0.0000E+00  0.0000E+00  0.0000E+00  0.0000E+00
  47     0.0000E+00  0.0000E+00  0.0000E+00  0.0000E+00  0.0000E+00  0.0000E+00  0.0000E+00  0.0000E+00  0.0000E+00  0.0000E+00
  48     0.0000E+00  0.0000E+00  0.0000E+00  0.0000E+00  0.0000E+00  0.0000E+00  0.0000E+00  0.0000E+00  0.0000E+00  0.0000E+00
  49     0.0000E+00  0.0000E+00  0.0000E+00  0.0000E+00  0.0000E+00  0.0000E+00  0.0000E+00  0.0000E+00  0.0000E+00  0.0000E+00
  50     0.0000E+00  0.0000E+00  0.0000E+00  0.0000E+00  0.0000E+00  0.0000E+00  0.0000E+00  0.0000E+00  0.0000E+00  0.0000E+00
  51     0.0000E+00  0.0000E+00  0.0000E+00  0.0000E+00  0.0000E+00  0.0000E+00  0.0000E+00  0.0000E+00  0.0000E+00  0.0000E+00
  52     0.0000E+00  0.0000E+00  0.0000E+00  0.0000E+00  0.0000E+00  0.0000E+00  0.0000E+00  0.0000E+00  0.0000E+00  0.0000E+00
  53     0.0000E+00  0.0000E+00  0.0000E+00  0.0000E+00  0.0000E+00  0.0000E+00  0.0000E+00  0.0000E+00  0.0000E+00  0.0000E+00
  54     0.0000E+00  0.0000E+00  0.0000E+00  0.0000E+00  0.0000E+00  0.0000E+00  0.0000E+00  0.0000E+00  0.0000E+00  0.0000E+00
  55     0.0000E+00  0.0000E+00  0.0000E+00  0.0000E+00  0.0000E+00  0.0000E+00  0.0000E+00  0.0000E+00  0.0000E+00  0.0000E+00
  56     0.0000E+00  0.0000E+00  0.0000E+00  0.0000E+00  0.0000E+00  0.0000E+00  0.0000E+00  0.0000E+00  0.0000E+00  0.0000E+00
  57     0.0000E+00  0.0000E+00  0.0000E+00  0.0000E+00  0.0000E+00  0.0000E+00  0.0000E+00  0.0000E+00  0.0000E+00  0.0000E+00
  58     0.0000E+00  0.0000E+00  0.0000E+00  0.0000E+00  0.0000E+00  0.0000E+00  0.0000E+00  0.0000E+00  0.0000E+00  0.0000E+00
  59     0.0000E+00  0.0000E+00  0.0000E+00  0.0000E+00  0.0000E+00  0.0000E+00  0.0000E+00  0.0000E+00  0.0000E+00  0.0000E+00
  60     0.0000E+00  0.0000E+00  0.0000E+00  0.0000E+00  0.0000E+00  0.0000E+00  0.0000E+00  0.0000E+00  0.0000E+00  0.0000E+00
  61     0.0000E+00  0.0000E+00  0.0000E+00  0.0000E+00  0.0000E+00  0.0000E+00  0.0000E+00  0.0000E+00  0.0000E+00  0.0000E+00
  62     0.0000E+00  0.0000E+00  0.0000E+00  0.0000E+00  0.0000E+00  0.0000E+00  0.0000E+00  0.0000E+00  0.0000E+00  0.0000E+00

             21          22          23          24          25          26          27          28          29          30

  21     0.0000E+00
  22     0.0000E+00  0.0000E+00
  23     0.0000E+00  0.0000E+00  0.0000E+00
  24     0.0000E+00  0.0000E+00  0.0000E+00  0.0000E+00
  25     0.0000E+00  0.0000E+00  0.0000E+00  0.0000E+00  0.0000E+00
  26     0.0000E+00  0.0000E+00  0.0000E+00  0.0000E+00  0.0000E+00  0.0000E+00
  27     0.0000E+00  0.0000E+00  0.0000E+00  0.0000E+00  0.0000E+00  0.0000E+00  0.0000E+00
  28     0.0000E+00  0.0000E+00  0.0000E+00  0.0000E+00  0.0000E+00  0.0000E+00  0.0000E+00  0.0000E+00
  29     0.0000E+00  0.0000E+00  0.0000E+00  0.0000E+00  0.0000E+00  0.0000E+00  0.0000E+00  0.0000E+00  0.0000E+00
  30     0.0000E+00  0.0000E+00  0.0000E+00  0.0000E+00  0.0000E+00  0.0000E+00  0.0000E+00  0.0000E+00  0.0000E+00  0.0000E+00
  31     0.0000E+00  0.0000E+00  0.0000E+00  0.0000E+00  0.0000E+00  0.0000E+00  0.0000E+00  0.0000E+00  0.0000E+00  0.0000E+00
  32     0.0000E+00  0.0000E+00  0.0000E+00  0.0000E+00  0.0000E+00  0.0000E+00  0.0000E+00  0.0000E+00  0.0000E+00  0.0000E+00
  33     0.0000E+00  0.0000E+00  0.0000E+00  0.0000E+00  0.0000E+00  0.0000E+00  0.0000E+00  0.0000E+00  0.0000E+00  0.0000E+00
  34     0.0000E+00  0.0000E+00  0.0000E+00  0.0000E+00  0.0000E+00  0.0000E+00  0.0000E+00  0.0000E+00  0.0000E+00  0.0000E+00
  35     0.0000E+00  0.0000E+00  0.0000E+00  0.0000E+00  0.0000E+00  0.0000E+00  0.0000E+00  0.0000E+00  0.0000E+00  0.0000E+00
  36     0.0000E+00  0.0000E+00  0.0000E+00  0.0000E+00  0.0000E+00  0.0000E+00  0.0000E+00  0.0000E+00  0.0000E+00  0.0000E+00
  37     0.0000E+00  0.0000E+00  0.0000E+00  0.0000E+00  0.0000E+00  0.0000E+00  0.0000E+00  0.0000E+00  0.0000E+00  0.0000E+00
  38     0.0000E+00  0.0000E+00  0.0000E+00  0.0000E+00  0.0000E+00  0.0000E+00  0.0000E+00  0.0000E+00  0.0000E+00  0.0000E+00
  39     0.0000E+00  0.0000E+00  0.0000E+00  0.0000E+00  0.0000E+00  0.0000E+00  0.0000E+00  0.0000E+00  0.0000E+00  0.0000E+00
  40     0.0000E+00  0.0000E+00  0.0000E+00  0.0000E+00  0.0000E+00  0.0000E+00  0.0000E+00  0.0000E+00  0.0000E+00  0.0000E+00
  41     0.0000E+00  0.0000E+00  0.0000E+00  0.0000E+00  0.0000E+00  0.0000E+00  0.0000E+00  0.0000E+00  0.0000E+00  0.0000E+00
  42     0.0000E+00  0.0000E+00  0.0000E+00  0.0000E+00  0.0000E+00  0.0000E+00  0.0000E+00  0.0000E+00  0.0000E+00  0.0000E+00
  43     0.0000E+00  0.0000E+00  0.0000E+00  0.0000E+00  0.0000E+00  0.0000E+00  0.0000E+00  0.0000E+00  0.0000E+00  0.0000E+00
  44     0.0000E+00  0.0000E+00  0.0000E+00  0.0000E+00  0.0000E+00  0.0000E+00  0.0000E+00  0.0000E+00  0.0000E+00  0.0000E+00
  45     0.0000E+00  0.0000E+00  0.0000E+00  0.0000E+00  0.0000E+00  0.0000E+00  0.0000E+00  0.0000E+00  0.0000E+00  0.0000E+00
  46     0.0000E+00  0.0000E+00  0.0000E+00  0.0000E+00  0.0000E+00  0.0000E+00  0.0000E+00  0.0000E+00  0.0000E+00  0.0000E+00
  47     0.0000E+00  0.0000E+00  0.0000E+00  0.0000E+00  0.0000E+00  0.0000E+00  0.0000E+00  0.0000E+00  0.0000E+00  0.0000E+00
  48     0.0000E+00  0.0000E+00  0.0000E+00  0.0000E+00  0.0000E+00  0.0000E+00  0.0000E+00  0.0000E+00  0.0000E+00  0.0000E+00
  49     0.0000E+00  0.0000E+00  0.0000E+00  0.0000E+00  0.0000E+00  0.0000E+00  0.0000E+00  0.0000E+00  0.0000E+00  0.0000E+00
  50     0.0000E+00  0.0000E+00  0.0000E+00  0.0000E+00  0.0000E+00  0.0000E+00  0.0000E+00  0.0000E+00  0.0000E+00  0.0000E+00
  51     0.0000E+00  0.0000E+00  0.0000E+00  0.0000E+00  0.0000E+00  0.0000E+00  0.0000E+00  0.0000E+00  0.0000E+00  0.0000E+00
  52     0.0000E+00  0.0000E+00  0.0000E+00  0.0000E+00  0.0000E+00  0.0000E+00  0.0000E+00  0.0000E+00  0.0000E+00  0.0000E+00
  53     0.0000E+00  0.0000E+00  0.0000E+00  0.0000E+00  0.0000E+00  0.0000E+00  0.0000E+00  0.0000E+00  0.0000E+00  0.0000E+00
  54     0.0000E+00  0.0000E+00  0.0000E+00  0.0000E+00  0.0000E+00  0.0000E+00  0.0000E+00  0.0000E+00  0.0000E+00  0.0000E+00
  55     0.0000E+00  0.0000E+00  0.0000E+00  0.0000E+00  0.0000E+00  0.0000E+00  0.0000E+00  0.0000E+00  0.0000E+00  0.0000E+00
  56     0.0000E+00  0.0000E+00  0.0000E+00  0.0000E+00  0.0000E+00  0.0000E+00  0.0000E+00  0.0000E+00  0.0000E+00  0.0000E+00
  57     0.0000E+00  0.0000E+00  0.0000E+00  0.0000E+00  0.0000E+00  0.0000E+00  0.0000E+00  0.0000E+00  0.0000E+00  0.0000E+00
  58     0.0000E+00  0.0000E+00  0.0000E+00  0.0000E+00  0.0000E+00  0.0000E+00  0.0000E+00  0.0000E+00  0.0000E+00  0.0000E+00
  59     0.0000E+00  0.0000E+00  0.0000E+00  0.0000E+00  0.0000E+00  0.0000E+00  0.0000E+00  0.0000E+00  0.0000E+00  0.0000E+00
  60     0.0000E+00  0.0000E+00  0.0000E+00  0.0000E+00  0.0000E+00  0.0000E+00  0.0000E+00  0.0000E+00  0.0000E+00  0.0000E+00
  61     0.0000E+00  0.0000E+00  0.0000E+00  0.0000E+00  0.0000E+00  0.0000E+00  0.0000E+00  0.0000E+00  0.0000E+00  0.0000E+00
  62     0.0000E+00  0.0000E+00  0.0000E+00  0.0000E+00  0.0000E+00  0.0000E+00  0.0000E+00  0.0000E+00  0.0000E+00  0.0000E+00

             31          32          33          34          35          36          37          38          39          40

  31     0.0000E+00
  32     0.0000E+00  0.0000E+00
  33     0.0000E+00  0.0000E+00  0.0000E+00
  34     0.0000E+00  0.0000E+00  0.0000E+00  0.0000E+00
  35     0.0000E+00  0.0000E+00  0.0000E+00  0.0000E+00  0.0000E+00
  36     0.0000E+00  0.0000E+00  0.0000E+00  0.0000E+00  0.0000E+00  0.0000E+00
  37     0.0000E+00  0.0000E+00  0.0000E+00  0.0000E+00  0.0000E+00  0.0000E+00  0.0000E+00
  38     0.0000E+00  0.0000E+00  0.0000E+00  0.0000E+00  0.0000E+00  0.0000E+00  0.0000E+00  0.0000E+00
  39     0.0000E+00  0.0000E+00  0.0000E+00  0.0000E+00  0.0000E+00  0.0000E+00  0.0000E+00  0.0000E+00  0.0000E+00
  40     0.0000E+00  0.0000E+00  0.0000E+00  0.0000E+00  0.0000E+00  0.0000E+00  0.0000E+00  0.0000E+00  0.0000E+00  0.0000E+00
  41     0.0000E+00  0.0000E+00  0.0000E+00  0.0000E+00  0.0000E+00  0.0000E+00  0.0000E+00  0.0000E+00  0.0000E+00  0.0000E+00
  42     0.0000E+00  0.0000E+00  0.0000E+00  0.0000E+00  0.0000E+00  0.0000E+00  0.0000E+00  0.0000E+00  0.0000E+00  0.0000E+00
  43     0.0000E+00  0.0000E+00  0.0000E+00  0.0000E+00  0.0000E+00  0.0000E+00  0.0000E+00  0.0000E+00  0.0000E+00  0.0000E+00
  44     0.0000E+00  0.0000E+00  0.0000E+00  0.0000E+00  0.0000E+00  0.0000E+00  0.0000E+00  0.0000E+00  0.0000E+00  0.0000E+00
  45     0.0000E+00  0.0000E+00  0.0000E+00  0.0000E+00  0.0000E+00  0.0000E+00  0.0000E+00  0.0000E+00  0.0000E+00  0.0000E+00
  46     0.0000E+00  0.0000E+00  0.0000E+00  0.0000E+00  0.0000E+00  0.0000E+00  0.0000E+00  0.0000E+00  0.0000E+00  0.0000E+00
  47     0.0000E+00  0.0000E+00  0.0000E+00  0.0000E+00  0.0000E+00  0.0000E+00  0.0000E+00  0.0000E+00  0.0000E+00  0.0000E+00
  48     0.0000E+00  0.0000E+00  0.0000E+00  0.0000E+00  0.0000E+00  0.0000E+00  0.0000E+00  0.0000E+00  0.0000E+00  0.0000E+00
  49     0.0000E+00  0.0000E+00  0.0000E+00  0.0000E+00  0.0000E+00  0.0000E+00  0.0000E+00  0.0000E+00  0.0000E+00  0.0000E+00
  50     0.0000E+00  0.0000E+00  0.0000E+00  0.0000E+00  0.0000E+00  0.0000E+00  0.0000E+00  0.0000E+00  0.0000E+00  0.0000E+00
  51     0.0000E+00  0.0000E+00  0.0000E+00  0.0000E+00  0.0000E+00  0.0000E+00  0.0000E+00  0.0000E+00  0.0000E+00  0.0000E+00
  52     0.0000E+00  0.0000E+00  0.0000E+00  0.0000E+00  0.0000E+00  0.0000E+00  0.0000E+00  0.0000E+00  0.0000E+00  0.0000E+00
  53     0.0000E+00  0.0000E+00  0.0000E+00  0.0000E+00  0.0000E+00  0.0000E+00  0.0000E+00  0.0000E+00  0.0000E+00  0.0000E+00
  54     0.0000E+00  0.0000E+00  0.0000E+00  0.0000E+00  0.0000E+00  0.0000E+00  0.0000E+00  0.0000E+00  0.0000E+00  0.0000E+00
  55     0.0000E+00  0.0000E+00  0.0000E+00  0.0000E+00  0.0000E+00  0.0000E+00  0.0000E+00  0.0000E+00  0.0000E+00  0.0000E+00
  56     0.0000E+00  0.0000E+00  0.0000E+00  0.0000E+00  0.0000E+00  0.0000E+00  0.0000E+00  0.0000E+00  0.0000E+00  0.0000E+00
  57     0.0000E+00  0.0000E+00  0.0000E+00  0.0000E+00  0.0000E+00  0.0000E+00  0.0000E+00  0.0000E+00  0.0000E+00  0.0000E+00
  58     0.0000E+00  0.0000E+00  0.0000E+00  0.0000E+00  0.0000E+00  0.0000E+00  0.0000E+00  0.0000E+00  0.0000E+00  0.0000E+00
  59     0.0000E+00  0.0000E+00  0.0000E+00  0.0000E+00  0.0000E+00  0.0000E+00  0.0000E+00  0.0000E+00  0.0000E+00  0.0000E+00
  60     0.0000E+00  0.0000E+00  0.0000E+00  0.0000E+00  0.0000E+00  0.0000E+00  0.0000E+00  0.0000E+00  0.0000E+00  0.0000E+00
  61     0.0000E+00  0.0000E+00  0.0000E+00  0.0000E+00  0.0000E+00  0.0000E+00  0.0000E+00  0.0000E+00  0.0000E+00  0.0000E+00
  62     0.0000E+00  0.0000E+00  0.0000E+00  0.0000E+00  0.0000E+00  0.0000E+00  0.0000E+00  0.0000E+00  0.0000E+00  0.0000E+00

             41          42          43          44          45          46          47          48          49          50

  41     0.0000E+00
  42     0.0000E+00  0.0000E+00
  43     0.0000E+00  0.0000E+00  0.0000E+00
  44     0.0000E+00  0.0000E+00  0.0000E+00  0.0000E+00
  45     0.0000E+00  0.0000E+00  0.0000E+00  0.0000E+00  0.0000E+00
  46     0.0000E+00  0.0000E+00  0.0000E+00  0.0000E+00  0.0000E+00  0.0000E+00
  47     0.0000E+00  0.0000E+00  0.0000E+00  0.0000E+00  0.0000E+00  0.0000E+00  0.0000E+00
  48     0.0000E+00  0.0000E+00  0.0000E+00  0.0000E+00  0.0000E+00  0.0000E+00  0.0000E+00  0.0000E+00
  49     0.0000E+00  0.0000E+00  0.0000E+00  0.0000E+00  0.0000E+00  0.0000E+00  0.0000E+00  0.0000E+00  0.0000E+00
  50     0.0000E+00  0.0000E+00  0.0000E+00  0.0000E+00  0.0000E+00  0.0000E+00  0.0000E+00  0.0000E+00  0.0000E+00  0.0000E+00
  51     0.0000E+00  0.0000E+00  0.0000E+00  0.0000E+00  0.0000E+00  0.0000E+00  0.0000E+00  0.0000E+00  0.0000E+00  0.0000E+00
  52     0.0000E+00  0.0000E+00  0.0000E+00  0.0000E+00  0.0000E+00  0.0000E+00  0.0000E+00  0.0000E+00  0.0000E+00  0.0000E+00
  53     0.0000E+00  0.0000E+00  0.0000E+00  0.0000E+00  0.0000E+00  0.0000E+00  0.0000E+00  0.0000E+00  0.0000E+00  0.0000E+00
  54     0.0000E+00  0.0000E+00  0.0000E+00  0.0000E+00  0.0000E+00  0.0000E+00  0.0000E+00  0.0000E+00  0.0000E+00  0.0000E+00
  55     0.0000E+00  0.0000E+00  0.0000E+00  0.0000E+00  0.0000E+00  0.0000E+00  0.0000E+00  0.0000E+00  0.0000E+00  0.0000E+00
  56     0.0000E+00  0.0000E+00  0.0000E+00  0.0000E+00  0.0000E+00  0.0000E+00  0.0000E+00  0.0000E+00  0.0000E+00  0.0000E+00
  57     0.0000E+00  0.0000E+00  0.0000E+00  0.0000E+00  0.0000E+00  0.0000E+00  0.0000E+00  0.0000E+00  0.0000E+00  0.0000E+00
  58     0.0000E+00  0.0000E+00  0.0000E+00  0.0000E+00  0.0000E+00  0.0000E+00  0.0000E+00  0.0000E+00  0.0000E+00  0.0000E+00
  59     0.0000E+00  0.0000E+00  0.0000E+00  0.0000E+00  0.0000E+00  0.0000E+00  0.0000E+00  0.0000E+00  0.0000E+00  0.0000E+00
  60     0.0000E+00  0.0000E+00  0.0000E+00  0.0000E+00  0.0000E+00  0.0000E+00  0.0000E+00  0.0000E+00  0.0000E+00  0.0000E+00
  61     0.0000E+00  0.0000E+00  0.0000E+00  0.0000E+00  0.0000E+00  0.0000E+00  0.0000E+00  0.0000E+00  0.0000E+00  0.0000E+00
  62     0.0000E+00  0.0000E+00  0.0000E+00  0.0000E+00  0.0000E+00  0.0000E+00  0.0000E+00  0.0000E+00  0.0000E+00  0.0000E+00

             51          52          53          54          55          56          57          58          59          60

  51     0.0000E+00
  52     0.0000E+00  0.0000E+00
  53     0.0000E+00  0.0000E+00  0.0000E+00
  54     0.0000E+00  0.0000E+00  0.0000E+00  0.0000E+00
  55     0.0000E+00  0.0000E+00  0.0000E+00  0.0000E+00  0.0000E+00
  56     0.0000E+00  0.0000E+00  0.0000E+00  0.0000E+00  0.0000E+00  0.0000E+00
  57     0.0000E+00  0.0000E+00  0.0000E+00  0.0000E+00  0.0000E+00  0.0000E+00  0.0000E+00
  58     0.0000E+00  0.0000E+00  0.0000E+00  0.0000E+00  0.0000E+00  0.0000E+00  0.0000E+00  0.0000E+00
  59     0.0000E+00  0.0000E+00  0.0000E+00  0.0000E+00  0.0000E+00  0.0000E+00  0.0000E+00  0.0000E+00  0.0000E+00
  60     0.0000E+00  0.0000E+00  0.0000E+00  0.0000E+00  0.0000E+00  0.0000E+00  0.0000E+00  0.0000E+00  0.0000E+00  0.0000E+00
  61     0.0000E+00  0.0000E+00  0.0000E+00  0.0000E+00  0.0000E+00  0.0000E+00  0.0000E+00  0.0000E+00  0.0000E+00  0.0000E+00
  62     0.0000E+00  0.0000E+00  0.0000E+00  0.0000E+00  0.0000E+00  0.0000E+00  0.0000E+00  0.0000E+00  0.0000E+00  0.0000E+00

             61          62
  61     0.0000E+00
  62     0.0000E+00  0.0000E+00
 TTTTTTTTTTTTTTTTTTTTTTTTTTTTTT BASISSET    TELAPSE        0.04 TCPU        0.04
 ENDPROP   
 TTTTTTTTTTTTTTTTTTTTTTTTTTTTTT END         TELAPSE        0.04 TCPU        0.04
 EEEEEEEEEE TERMINATION  DATE 28 08 2025 TIME 12:23:25.6
Thu 28 Aug 12:23:25 CEST 2025
Contents of temporary directory:
total 1336
-rw-rw-r--. 1 palacios palacios 117896 Aug 28 12:23 fort.11
-rw-rw-r--. 1 palacios palacios 504456 Aug 28 12:23 fort.13
-rw-rw-r--. 1 palacios palacios 117896 Aug 28 12:23 fort.3
-rw-rw-r--. 1 palacios palacios 172812 Aug 28 12:23 fort.9
-rw-rw-r--. 1 palacios palacios 443944 Aug 28 12:23 fort.98
file fort.98 saved as /home/palacios/MoS2/MoS2.f98
file fort.13 saved as /home/palacios/MoS2/MoS2.f13
removing temporary directories /home/palacios/scratch/tmp_p1931403_palacios
